ITEM: TIMESTEP
2000
ITEM: NUMBER OF ATOMS
10
ITEM: BOX BOUNDS pp pp pp
-2.0000000000000000e+01 2.0000000000000000e+01
-2.0000000000000000e+01 2.0000000000000000e+01
-2.0000000000000000e+01 2.0000000000000000e+01
ITEM: ATOMS id x y z vx vy vz fx fy fz tqx tqy tqz c_quat[1] c_quat[2] c_quat[3] c_quat[4] 
1 -5.999587e-01 -2.329718e-04 -9.872709e-05  4.126040e-03 -2.323031e-02 -9.850001e-03  6.490590e-01 -3.625293e+00 -1.540741e+00  6.827420e-01  5.519552e-01 -1.911925e+00  9.999999e-01  1.572710e-04  1.289877e-04 -4.468477e-04 
2 -4.859884e-01 -3.517849e-01  3.897620e-01  3.646562e-03  3.840396e-03 -1.064122e-04  5.683750e-01  5.967408e-01 -3.107661e-02  1.361880e+00  9.917167e-01  8.967039e-02  9.513190e-01  3.701947e-04  1.194597e-04  3.082077e-01 
3 -1.873940e-01 -5.699306e-01  7.795255e-01  6.860783e-04  5.238029e-03 -1.700153e-05  1.040928e-01  8.134416e-01 -3.016043e-03  5.289284e-01  1.605627e+00  9.570632e-02  8.100286e-01  3.157742e-04  2.283339e-04  5.863902e-01 
4  1.823946e-01 -5.715500e-01  1.169289e+00 -2.524977e-03  4.667972e-03  5.757815e-05 -3.963859e-01  7.229467e-01  2.312434e-02 -5.074008e-01  1.613476e+00  9.975181e-02  5.898834e-01  2.301823e-04  3.148398e-04  8.074884e-01 
5  4.827835e-01 -3.562402e-01  1.559150e+00 -1.524236e-02 -1.882853e-02  9.790891e-03 -2.381474e+00 -2.937297e+00  1.530197e+00 -4.801255e-01  1.043236e+00  2.008171e+00  3.118892e-01  1.956124e-04  1.798165e-04  9.501185e-01 
6 -4.827648e-01  3.562143e-01  1.559150e+00  1.710633e-02  1.624947e-02  9.850001e-03  2.673741e+00  2.532812e+00  1.540741e+00  2.219942e-01 -8.494174e-01  1.911925e+00 -1.091157e-04  9.501115e-01 -3.119104e-01  1.716559e-04 
7 -1.824133e-01  5.715441e-01  1.169289e+00  6.561317e-04 -5.255049e-03  1.064122e-04  1.033642e-01 -8.175974e-01  3.107661e-02  5.076653e-01 -1.606392e+00 -8.967039e-02 -3.143632e-04  8.074625e-01 -5.899188e-01  2.291081e-04 
8  1.873753e-01  5.699368e-01  7.795259e-01 -2.556125e-03 -4.623188e-03  1.700153e-05 -3.989280e-01 -7.165047e-01  3.016043e-03 -5.270783e-01 -1.606236e+00 -9.570632e-02 -2.286600e-04  5.863544e-01 -8.100545e-01  3.155381e-04 
9  4.859768e-01  3.518007e-01  3.897625e-01 -4.802401e-03 -2.258853e-03 -5.757815e-05 -7.480588e-01 -3.466725e-01 -2.312434e-02 -1.365871e+00 -9.975756e-01 -9.975181e-02  1.203313e-04 -3.081659e-01  9.513326e-01 -3.709829e-04 
10  5.999891e-01  2.426847e-04 -9.815530e-05 -1.095279e-03  2.420007e-02 -9.790891e-03 -1.737857e-01  3.777424e+00 -1.530197e+00 -1.005526e+00 -5.547785e-01 -2.008171e+00  1.296634e-04  4.691925e-04  9.999999e-01 -2.319172e-04 
