ITEM: TIMESTEP
1000
ITEM: NUMBER OF ATOMS
10
ITEM: BOX BOUNDS pp pp pp
-2.0000000000000000e+01 2.0000000000000000e+01
-2.0000000000000000e+01 2.0000000000000000e+01
-2.0000000000000000e+01 2.0000000000000000e+01
ITEM: ATOMS id x y z vx vy vz fx fy fz tqx tqy tqz c_quat[1] c_quat[2] c_quat[3] c_quat[4] 
1 -5.999897e-01 -5.836842e-05 -2.472438e-05  2.065838e-03 -1.166531e-02 -4.942034e-03  6.516868e-01 -3.672755e+00 -1.556858e+00  6.842435e-01  5.603864e-01 -1.941312e+00  1.000000e+00  3.933213e-05  3.232783e-05 -1.119938e-04 
2 -4.860158e-01 -3.518137e-01  3.897627e-01  1.831995e-03  1.931560e-03 -3.621186e-05  5.766153e-01  6.074970e-01 -1.501925e-02  1.371328e+00  9.911228e-01  9.441018e-02  9.513241e-01  9.263304e-05  2.983138e-05  3.081922e-01 
3 -1.873992e-01 -5.699700e-01  7.795257e-01  3.480631e-04  2.635090e-03 -8.107034e-06  1.088413e-01  8.286398e-01 -2.642575e-03  5.303342e-01  1.610184e+00  9.615705e-02  8.100384e-01  7.898001e-05  5.711092e-05  5.863768e-01 
4  1.824135e-01 -5.715851e-01  1.169289e+00 -1.265166e-03  2.350639e-03  1.208005e-05 -3.989102e-01  7.387057e-01  7.340221e-03 -5.146216e-01  1.616728e+00  9.642242e-02  5.898968e-01  5.752968e-05  7.878422e-05  8.074786e-01 
5  4.828980e-01 -3.560986e-01  1.559076e+00 -7.650825e-03 -9.456149e-03  4.913928e-03 -2.409496e+00 -2.976959e+00  1.547677e+00 -4.777614e-01  1.052098e+00  2.038452e+00  3.122232e-01  4.899102e-05  4.495909e-05  9.500088e-01 
6 -4.828933e-01  3.560922e-01  1.559076e+00  8.585198e-03  8.163432e-03  4.942034e-03  2.704021e+00  2.569455e+00  1.556858e+00  2.181995e-01 -8.570946e-01  1.941312e+00 -2.726731e-05  9.500070e-01 -3.122285e-01  4.299534e-05 
7 -1.824182e-01  5.715837e-01  1.169289e+00  3.283370e-04 -2.641841e-03  3.621186e-05  1.036139e-01 -8.311450e-01  1.501925e-02  5.156220e-01 -1.611520e+00 -9.441018e-02 -7.868142e-05  8.074722e-01 -5.899057e-01  5.727151e-05 
8  1.873945e-01  5.699716e-01  7.795258e-01 -1.283559e-03 -2.327515e-03  8.107034e-06 -4.041248e-01 -7.315555e-01  2.642575e-03 -5.286510e-01 -1.610738e+00 -9.615705e-02 -5.719107e-05  5.863679e-01 -8.100449e-01  7.892199e-05 
9  4.860129e-01  3.518177e-01  3.897628e-01 -2.413238e-03 -1.141242e-03 -1.208005e-05 -7.594423e-01 -3.578588e-01 -7.340221e-03 -1.373613e+00 -9.959081e-01 -9.642242e-02  3.004453e-05 -3.081817e-01  9.513275e-01 -9.281134e-05 
10  5.999973e-01  6.079950e-05 -2.458507e-05 -5.466443e-04  1.215134e-02 -4.913928e-03 -1.728048e-01  3.825976e+00 -1.547677e+00 -1.008882e+00 -5.633141e-01 -2.038452e+00  3.249780e-05  1.175886e-04  1.000000e+00 -5.801149e-05 
