# LAMMPS data file
2698 atoms
2698 ellipsoids
2697 bonds

4 atom types
1 bond types

0.0 50.0 xlo xhi
0.0 50.0 ylo yhi
0.0 50.0 zlo zhi

Masses

1 3.1575
2 3.1575
3 3.1575
4 3.1575

Atoms

1 3 0.0000000000 0.0000000000 0.0000000000 1 1 1.0
2 3 0.3900000000 -0.0485657341 0.3708354848 1 1 1.0
3 2 0.7800000000 -0.2995006947 0.6481606241 1 1 1.0
4 1 1.1700000000 -0.6636495169 0.7334438147 1 1 1.0
5 4 1.5600000000 -1.0116327751 0.5963845599 1 1 1.0
6 3 1.9500000000 -1.2198145508 0.2856790150 1 1 1.0
7 1 2.3400000000 -1.2142293746 -0.0882814015 1 1 1.0
8 3 2.7300000000 -0.9968616190 -0.3926312760 1 1 1.0
9 4 3.1200000000 -0.6449404651 -0.5192373137 1 1 1.0
10 2 3.5100000000 -0.2835009371 -0.4231173109 1 1 1.0
11 2 3.9000000000 -0.0409598682 -0.1384220051 1 1 1.0
12 3 4.2900000000 -0.0034903345 0.2336984342 1 1 1.0
13 2 4.6800000000 -0.1844049885 0.5610323238 1 1 1.0
14 1 5.0700000000 -0.5194261708 0.7272803155 1 1 1.0
15 4 5.4600000000 -0.8895232940 0.6733757082 1 1 1.0
16 4 5.8500000000 -1.1632035445 0.4184704163 1 1 1.0
17 4 6.2400000000 -1.2432303215 0.0531304346 1 1 1.0
18 1 6.6300000000 -1.1011706938 -0.2928416011 1 1 1.0
19 4 7.0200000000 -0.7874974128 -0.4965243450 1 1 1.0
20 4 7.4100000000 -0.4136563120 -0.4855508009 1 1 1.0
21 1 7.8000000000 -0.1124704131 -0.2638197892 1 1 1.0
22 3 8.1900000000 0.0090511267 0.0898892758 1 1 1.0
23 4 8.5800000000 -0.0922674111 0.4499061382 1 1 1.0
24 1 8.9700000000 -0.3804282877 0.6883194275 1 1 1.0
25 3 9.3600000000 -0.7530500413 0.7204226377 1 1 1.0
26 2 9.7500000000 -1.0777428753 0.5348097317 1 1 1.0
27 3 10.1400000000 -1.2391457895 0.1974276240 1 1 1.0
28 1 10.5300000000 -1.1799135034 -0.1718542786 1 1 1.0
29 1 10.9200000000 -0.9210908171 -0.4418328044 1 1 1.0
30 3 11.3100000000 -0.5546355469 -0.5165865484 1 1 1.0
31 4 11.7000000000 -0.2107465826 -0.3695560497 1 1 1.0
32 4 12.0900000000 -0.0116051699 -0.0529801740 1 1 1.0
33 2 12.4800000000 -0.0279648030 0.3206639745 1 1 1.0
34 2 12.8700000000 -0.2540130234 0.6186233499 1 1 1.0
35 4 13.2600000000 -0.6094365439 0.7350351551 1 1 1.0
36 2 13.6500000000 -0.9679559750 0.6285391232 1 1 1.0
37 3 14.0400000000 -1.2021919728 0.3369725190 1 1 1.0
38 1 14.4300000000 -1.2289221924 -0.0360731654 1 1 1.0
39 3 14.8200000000 -1.0386495813 -0.3580575141 1 1 1.0
40 1 15.2100000000 -0.6989766132 -0.5145818318 1 1 1.0
41 1 15.6000000000 -0.3305866209 -0.4500341680 1 1 1.0
42 1 15.9900000000 -0.0643658870 -0.1873478376 1 1 1.0
43 3 16.3800000000 0.0050992998 0.1801466183 1 1 1.0
44 1 16.7700000000 -0.1468715358 0.5218810949 1 1 1.0
45 1 17.1600000000 -0.4662842620 0.7164398202 1 1 1.0
46 3 17.5500000000 -0.8396538626 0.6946974955 1 1 1.0
47 1 17.9400000000 -1.1343248364 0.4643790105 1 1 1.0
48 1 18.3300000000 -1.2456027315 0.1073148463 1 1 1.0
49 2 18.7200000000 -1.1339513218 -0.2496326989 1 1 1.0
50 4 19.1100000000 -0.8390395404 -0.4796427607 1 1 1.0
51 4 19.5000000000 -0.4656473965 -0.5009944386 1 1 1.0
52 1 19.8900000000 -0.1464384005 -0.3061016367 1 1 1.0
53 1 20.2800000000 0.0051748149 0.0357916510 1 1 1.0
54 1 20.6700000000 -0.0646748219 0.4032132284 1 1 1.0
55 1 21.0600000000 -0.3311702436 0.6656208837 1 1 1.0
56 1 21.4500000000 -0.6996275667 0.7297830872 1 1 1.0
57 1 21.8400000000 -1.0391365866 0.5729034750 1 1 1.0
58 2 22.2300000000 -1.2290722200 0.2507202314 1 1 1.0
59 1 22.6200000000 -1.2019517191 -0.1222972826 1 1 1.0
60 3 23.0100000000 -0.9674108003 -0.4136186596 1 1 1.0
61 1 23.4000000000 -0.6087801448 -0.5197395352 1 1 1.0
62 3 23.7900000000 -0.2534786137 -0.4029559347 1 1 1.0
63 1 24.1800000000 -0.0277422547 -0.1047602213 1 1 1.0
64 3 24.5700000000 -0.0117735527 0.2689008388 1 1 1.0
65 1 24.9600000000 -0.2112460714 0.5852681911 1 1 1.0
66 4 25.3500000000 -0.5552886769 0.7319388184 1 1 1.0
67 3 25.7400000000 -0.9216655360 0.6568017144 1 1 1.0
68 2 26.1300000000 -1.1802056178 0.3865525452 1 1 1.0
69 3 26.5200000000 -1.2390515133 0.0172088734 1 1 1.0
70 3 26.9100000000 -1.0772957041 -0.3200041831 1 1 1.0
71 4 27.3000000000 -0.7524088518 -0.5052772802 1 1 1.0
72 2 27.6900000000 -0.3798208899 -0.4727842352 1 1 1.0
73 1 28.0800000000 -0.0919096090 -0.2340695904 1 1 1.0
74 1 28.4700000000 0.0090322087 0.1260530787 1 1 1.0
75 4 28.8600000000 -0.1128593298 0.4796348092 1 1 1.0
76 1 29.2500000000 -0.4142770483 0.7010505863 1 1 1.0
77 1 29.6400000000 -0.7881294254 0.7116329961 1 1 1.0
78 3 30.0300000000 -1.1015894333 0.5076221856 1 1 1.0
79 2 30.4200000000 -1.2432870128 0.1615017105 1 1 1.0
80 4 30.8100000000 -1.1628780456 -0.2037543439 1 1 1.0
81 1 31.2000000000 -0.8889312523 -0.4583731605 1 1 1.0
82 1 31.5900000000 -0.5187779344 -0.5118905273 1 1 1.0
83 3 31.9800000000 -0.1839308711 -0.3452921133 1 1 1.0
84 2 32.3700000000 -0.0033587865 -0.0177691224 1 1 1.0
85 4 32.7600000000 -0.0412176277 0.3543119110 1 1 1.0
86 1 33.1500000000 -0.2840564241 0.6387533045 1 1 1.0
87 3 33.5400000000 -0.6455963190 0.7344951014 1 1 1.0
88 4 33.9300000000 -0.9973848197 0.6075209384 1 1 1.0
89 4 34.3200000000 -1.2144340328 0.3029438111 1 1 1.0
90 2 34.7100000000 -1.2196279529 -0.0710222441 1 1 1.0
91 2 35.1000000000 -1.0111212179 -0.3815098104 1 1 1.0
92 4 35.4900000000 -0.6629947530 -0.5182049156 1 1 1.0
93 1 35.8800000000 -0.2989353570 -0.4325407839 1 1 1.0
94 3 36.2700000000 -0.0482906830 -0.1549532577 1 1 1.0
95 3 36.6600000000 -0.0001129590 0.2159328357 1 1 1.0
96 1 37.0500000000 -0.1715193798 0.5483443671 1 1 1.0
97 1 37.4400000000 -0.5016104917 0.7241779394 1 1 1.0
98 3 37.8300000000 -0.8731073257 0.6809611642 1 1 1.0
99 3 38.2200000000 -1.1540197610 0.4340486472 1 1 1.0
100 1 38.6100000000 -1.2445416542 0.0711666083 1 1 1.0
101 3 39.0000000000 -1.1125112357 -0.2787556057 1 1 1.0
102 4 39.3900000000 -0.8048379521 -0.4913931796 1 1 1.0
103 1 39.7800000000 -0.4308358812 -0.4911975313 1 1 1.0
104 4 40.1700000000 -0.1233852362 -0.2782381731 1 1 1.0
105 4 40.5600000000 0.0082790067 0.0718219853 1 1 1.0
106 2 40.9500000000 -0.0826224994 0.4346091178 1 1 1.0
107 1 41.3400000000 -0.3637931111 0.6812275972 1 1 1.0
108 2 41.7300000000 -0.7353349570 0.7240556732 1 1 1.0
109 3 42.1200000000 -1.0652419238 0.5478768420 1 1 1.0
110 3 42.5100000000 -1.2363004679 0.2152861599 1 1 1.0
111 1 42.5100000000 -2.7963004679 0.2152861599 1 1 1.0
112 3 42.1200000000 -2.8448662020 -0.1555493249 1 1 1.0
113 4 41.7300000000 -3.0958011626 -0.4328744642 1 1 1.0
114 2 41.3400000000 -3.4599499848 -0.5181576548 1 1 1.0
115 2 40.9500000000 -3.8079332430 -0.3810984000 1 1 1.0
116 4 40.5600000000 -4.0161150187 -0.0703928552 1 1 1.0
117 2 40.1700000000 -4.0105298425 0.3035675614 1 1 1.0
118 2 39.7800000000 -3.7931620869 0.6079174359 1 1 1.0
119 4 39.3900000000 -3.4412409330 0.7345234736 1 1 1.0
120 2 39.0000000000 -3.0798014050 0.6384034708 1 1 1.0
121 3 38.6100000000 -2.8372603361 0.3537081650 1 1 1.0
122 2 38.2200000000 -2.7997908023 -0.0184122744 1 1 1.0
123 4 37.8300000000 -2.9807054564 -0.3457461639 1 1 1.0
124 1 37.4400000000 -3.3157266387 -0.5119941557 1 1 1.0
125 2 37.0500000000 -3.6858237619 -0.4580895483 1 1 1.0
126 3 36.6600000000 -3.9595040124 -0.2031842564 1 1 1.0
127 3 36.2700000000 -4.0395307894 0.1621557253 1 1 1.0
128 2 35.8800000000 -3.8974711616 0.5081277610 1 1 1.0
129 3 35.4900000000 -3.5837978807 0.7118105049 1 1 1.0
130 1 35.1000000000 -3.2099567799 0.7008369608 1 1 1.0
131 1 34.7100000000 -2.9087708809 0.4791059491 1 1 1.0
132 2 34.3200000000 -2.7872493412 0.1253968840 1 1 1.0
133 1 33.9300000000 -2.8885678790 -0.2346199783 1 1 1.0
134 3 33.5400000000 -3.1767287556 -0.4730332677 1 1 1.0
135 4 33.1500000000 -3.5493505091 -0.5051364778 1 1 1.0
136 3 32.7600000000 -3.8740433432 -0.3195235718 1 1 1.0
137 4 32.3700000000 -4.0354462574 0.0178585359 1 1 1.0
138 2 31.9800000000 -3.9762139713 0.3871404385 1 1 1.0
139 4 31.5900000000 -3.7173912850 0.6571189642 1 1 1.0
140 2 31.2000000000 -3.3509360148 0.7318727083 1 1 1.0
141 2 30.8100000000 -3.0070470505 0.5848422095 1 1 1.0
142 4 30.4200000000 -2.8079056378 0.2682663339 1 1 1.0
143 4 30.0300000000 -2.8242652709 -0.1053778146 1 1 1.0
144 3 29.6400000000 -3.0503134913 -0.4033371900 1 1 1.0
145 1 29.2500000000 -3.4057370118 -0.5197489952 1 1 1.0
146 1 28.8600000000 -3.7642564429 -0.4132529633 1 1 1.0
147 1 28.4700000000 -3.9984924407 -0.1216863591 1 1 1.0
148 1 28.0800000000 -4.0252226602 0.2513593253 1 1 1.0
149 4 27.6900000000 -3.8349500492 0.5733436740 1 1 1.0
150 3 27.3000000000 -3.4952770810 0.7298679917 1 1 1.0
151 4 26.9100000000 -3.1268870888 0.6653203278 1 1 1.0
152 1 26.5200000000 -2.8606663549 0.4026339975 1 1 1.0
153 2 26.1300000000 -2.7912011681 0.0351395416 1 1 1.0
154 2 25.7400000000 -2.9431720036 -0.3065949350 1 1 1.0
155 4 25.3500000000 -3.2625847299 -0.5011536603 1 1 1.0
156 1 24.9600000000 -3.6359543305 -0.4794113357 1 1 1.0
157 4 24.5700000000 -3.9306253043 -0.2490928507 1 1 1.0
158 4 24.1800000000 -4.0419031993 0.1079713136 1 1 1.0
159 3 23.7900000000 -3.9302517897 0.4649188588 1 1 1.0
160 3 23.4000000000 -3.6353400083 0.6949289206 1 1 1.0
161 2 23.0100000000 -3.2619478644 0.7162805985 1 1 1.0
162 4 22.6200000000 -2.9427388684 0.5213877966 1 1 1.0
163 1 22.2300000000 -2.7911256530 0.1794945089 1 1 1.0
164 4 21.8400000000 -2.8609752898 -0.1879270685 1 1 1.0
165 4 21.4500000000 -3.1274707115 -0.4503347238 1 1 1.0
166 3 21.0600000000 -3.4959280346 -0.5144969273 1 1 1.0
167 4 20.6700000000 -3.8354370545 -0.3576173152 1 1 1.0
168 4 20.2800000000 -4.0253726879 -0.0354340715 1 1 1.0
169 2 19.8900000000 -3.9982521870 0.3375834425 1 1 1.0
170 4 19.5000000000 -3.7637112682 0.6289048195 1 1 1.0
171 1 19.1100000000 -3.4050806127 0.7350256951 1 1 1.0
172 4 18.7200000000 -3.0497790816 0.6182420946 1 1 1.0
173 3 18.3300000000 -2.8240427225 0.3200463812 1 1 1.0
174 2 17.9400000000 -2.8080740206 -0.0536146789 1 1 1.0
175 1 17.5500000000 -3.0075465392 -0.3699820313 1 1 1.0
176 3 17.1600000000 -3.3515891448 -0.5166526585 1 1 1.0
177 4 16.7700000000 -3.7179660039 -0.4415155545 1 1 1.0
178 2 16.3800000000 -3.9765060857 -0.1712663853 1 1 1.0
179 1 15.9900000000 -4.0353519811 0.1980772865 1 1 1.0
180 3 15.6000000000 -3.8735961720 0.5352903430 1 1 1.0
181 1 15.2100000000 -3.5487093197 0.7205634401 1 1 1.0
182 3 14.8200000000 -3.1761213578 0.6880703951 1 1 1.0
183 3 14.4300000000 -2.8882100769 0.4493557503 1 1 1.0
184 3 14.0400000000 -2.7872682592 0.0892330812 1 1 1.0
185 2 13.6500000000 -2.9091597977 -0.2643486493 1 1 1.0
186 3 13.2600000000 -3.2105775161 -0.4857644264 1 1 1.0
187 4 12.8700000000 -3.5844298933 -0.4963468362 1 1 1.0
188 2 12.4800000000 -3.8978899011 -0.2923360257 1 1 1.0
189 1 12.0900000000 -4.0395874807 0.0537844494 1 1 1.0
190 4 11.7000000000 -3.9591785135 0.4190405038 1 1 1.0
191 2 11.3100000000 -3.6852317202 0.6736593204 1 1 1.0
192 1 10.9200000000 -3.3150784023 0.7271766871 1 1 1.0
193 3 10.5300000000 -2.9802313390 0.5605782732 1 1 1.0
194 2 10.1400000000 -2.7996592544 0.2330552823 1 1 1.0
195 1 9.7500000000 -2.8375180956 -0.1390257511 1 1 1.0
196 2 9.3600000000 -3.0803568919 -0.4234671446 1 1 1.0
197 4 8.9700000000 -3.4418967869 -0.5192089415 1 1 1.0
198 2 8.5800000000 -3.7936852876 -0.3922347785 1 1 1.0
199 4 8.1900000000 -4.0107345007 -0.0876576513 1 1 1.0
200 1 7.8000000000 -4.0159284207 0.2863084040 1 1 1.0
201 3 7.4100000000 -3.8074216858 0.5967959703 1 1 1.0
202 4 7.0200000000 -3.4592952209 0.7334910755 1 1 1.0
203 3 6.6300000000 -3.0952358249 0.6478269437 1 1 1.0
204 3 6.2400000000 -2.8445911508 0.3702394176 1 1 1.0
205 2 5.8500000000 -2.7964134269 -0.0006466758 1 1 1.0
206 3 5.4600000000 -2.9678198477 -0.3330582072 1 1 1.0
207 1 5.0700000000 -3.2979109596 -0.5088917795 1 1 1.0
208 3 4.6800000000 -3.6694077936 -0.4656750043 1 1 1.0
209 1 4.2900000000 -3.9503202289 -0.2187624874 1 1 1.0
210 1 3.9000000000 -4.0408421221 0.1441195515 1 1 1.0
211 3 3.5100000000 -3.9088117036 0.4940417656 1 1 1.0
212 3 3.1200000000 -3.6011384199 0.7066793395 1 1 1.0
213 4 2.7300000000 -3.2271363490 0.7064836911 1 1 1.0
214 2 2.3400000000 -2.9196857041 0.4935243329 1 1 1.0
215 2 1.9500000000 -2.7880214612 0.1434641746 1 1 1.0
216 1 1.5600000000 -2.8789229673 -0.2193229579 1 1 1.0
217 2 1.1700000000 -3.1600935790 -0.4659414373 1 1 1.0
218 1 0.7800000000 -3.5316354249 -0.5087695133 1 1 1.0
219 4 0.3900000000 -3.8615423917 -0.3325906821 1 1 1.0
220 4 -0.0000000000 -4.0326009358 0.0000000000 1 1 1.0
221 1 -0.0000000000 -5.5926009358 0.0000000000 1 1 1.0
222 3 0.3900000000 -5.6411666699 0.3708354848 1 1 1.0
223 1 0.7800000000 -5.8921016305 0.6481606241 1 1 1.0
224 1 1.1700000000 -6.2562504527 0.7334438147 1 1 1.0
225 3 1.5600000000 -6.6042337108 0.5963845599 1 1 1.0
226 3 1.9500000000 -6.8124154866 0.2856790150 1 1 1.0
227 3 2.3400000000 -6.8068303104 -0.0882814015 1 1 1.0
228 3 2.7300000000 -6.5894625548 -0.3926312760 1 1 1.0
229 2 3.1200000000 -6.2375414009 -0.5192373137 1 1 1.0
230 3 3.5100000000 -5.8761018729 -0.4231173109 1 1 1.0
231 4 3.9000000000 -5.6335608039 -0.1384220051 1 1 1.0
232 3 4.2900000000 -5.5960912702 0.2336984342 1 1 1.0
233 1 4.6800000000 -5.7770059243 0.5610323238 1 1 1.0
234 4 5.0700000000 -6.1120271065 0.7272803155 1 1 1.0
235 2 5.4600000000 -6.4821242298 0.6733757082 1 1 1.0
236 3 5.8500000000 -6.7558044802 0.4184704163 1 1 1.0
237 3 6.2400000000 -6.8358312573 0.0531304346 1 1 1.0
238 1 6.6300000000 -6.6937716295 -0.2928416011 1 1 1.0
239 3 7.0200000000 -6.3800983486 -0.4965243450 1 1 1.0
240 3 7.4100000000 -6.0062572478 -0.4855508009 1 1 1.0
241 3 7.8000000000 -5.7050713488 -0.2638197892 1 1 1.0
242 4 8.1900000000 -5.5835498090 0.0898892758 1 1 1.0
243 4 8.5800000000 -5.6848683469 0.4499061382 1 1 1.0
244 1 8.9700000000 -5.9730292235 0.6883194275 1 1 1.0
245 3 9.3600000000 -6.3456509770 0.7204226377 1 1 1.0
246 1 9.7500000000 -6.6703438110 0.5348097317 1 1 1.0
247 1 10.1400000000 -6.8317467253 0.1974276240 1 1 1.0
248 4 10.5300000000 -6.7725144392 -0.1718542786 1 1 1.0
249 1 10.9200000000 -6.5136917529 -0.4418328044 1 1 1.0
250 1 11.3100000000 -6.1472364827 -0.5165865484 1 1 1.0
251 4 11.7000000000 -5.8033475184 -0.3695560497 1 1 1.0
252 2 12.0900000000 -5.6042061057 -0.0529801740 1 1 1.0
253 3 12.4800000000 -5.6205657388 0.3206639745 1 1 1.0
254 3 12.8700000000 -5.8466139592 0.6186233499 1 1 1.0
255 1 13.2600000000 -6.2020374797 0.7350351551 1 1 1.0
256 4 13.6500000000 -6.5605569108 0.6285391232 1 1 1.0
257 3 14.0400000000 -6.7947929086 0.3369725190 1 1 1.0
258 3 14.4300000000 -6.8215231281 -0.0360731654 1 1 1.0
259 2 14.8200000000 -6.6312505170 -0.3580575141 1 1 1.0
260 4 15.2100000000 -6.2915775489 -0.5145818318 1 1 1.0
261 1 15.6000000000 -5.9231875566 -0.4500341680 1 1 1.0
262 2 15.9900000000 -5.6569668227 -0.1873478376 1 1 1.0
263 2 16.3800000000 -5.5875016360 0.1801466183 1 1 1.0
264 4 16.7700000000 -5.7394724715 0.5218810949 1 1 1.0
265 2 17.1600000000 -6.0588851978 0.7164398202 1 1 1.0
266 1 17.5500000000 -6.4322547984 0.6946974955 1 1 1.0
267 4 17.9400000000 -6.7269257721 0.4643790105 1 1 1.0
268 2 18.3300000000 -6.8382036672 0.1073148463 1 1 1.0
269 1 18.7200000000 -6.7265522575 -0.2496326989 1 1 1.0
270 4 19.1100000000 -6.4316404762 -0.4796427607 1 1 1.0
271 3 19.5000000000 -6.0582483322 -0.5009944386 1 1 1.0
272 2 19.8900000000 -5.7390393363 -0.3061016367 1 1 1.0
273 2 20.2800000000 -5.5874261208 0.0357916510 1 1 1.0
274 1 20.6700000000 -5.6572757577 0.4032132284 1 1 1.0
275 1 21.0600000000 -5.9237711793 0.6656208837 1 1 1.0
276 4 21.4500000000 -6.2922285025 0.7297830872 1 1 1.0
277 1 21.8400000000 -6.6317375224 0.5729034750 1 1 1.0
278 1 22.2300000000 -6.8216731558 0.2507202314 1 1 1.0
279 4 22.6200000000 -6.7945526549 -0.1222972826 1 1 1.0
280 1 23.0100000000 -6.5600117361 -0.4136186596 1 1 1.0
281 1 23.4000000000 -6.2013810806 -0.5197395352 1 1 1.0
282 2 23.7900000000 -5.8460795495 -0.4029559347 1 1 1.0
283 4 24.1800000000 -5.6203431904 -0.1047602213 1 1 1.0
284 1 24.5700000000 -5.6043744884 0.2689008388 1 1 1.0
285 2 24.9600000000 -5.8038470071 0.5852681911 1 1 1.0
286 2 25.3500000000 -6.1478896126 0.7319388184 1 1 1.0
287 4 25.7400000000 -6.5142664718 0.6568017144 1 1 1.0
288 3 26.1300000000 -6.7728065536 0.3865525452 1 1 1.0
289 4 26.5200000000 -6.8316524490 0.0172088734 1 1 1.0
290 4 26.9100000000 -6.6698966399 -0.3200041831 1 1 1.0
291 1 27.3000000000 -6.3450097875 -0.5052772802 1 1 1.0
292 2 27.6900000000 -5.9724218257 -0.4727842352 1 1 1.0
293 3 28.0800000000 -5.6845105448 -0.2340695904 1 1 1.0
294 3 28.4700000000 -5.5835687271 0.1260530787 1 1 1.0
295 1 28.8600000000 -5.7054602656 0.4796348092 1 1 1.0
296 4 29.2500000000 -6.0068779840 0.7010505863 1 1 1.0
297 2 29.6400000000 -6.3807303612 0.7116329961 1 1 1.0
298 2 30.0300000000 -6.6941903690 0.5076221856 1 1 1.0
299 3 30.4200000000 -6.8358879486 0.1615017105 1 1 1.0
300 4 30.8100000000 -6.7554789813 -0.2037543439 1 1 1.0
301 2 31.2000000000 -6.4815321881 -0.4583731605 1 1 1.0
302 1 31.5900000000 -6.1113788701 -0.5118905273 1 1 1.0
303 1 31.9800000000 -5.7765318068 -0.3452921133 1 1 1.0
304 4 32.3700000000 -5.5959597222 -0.0177691224 1 1 1.0
305 2 32.7600000000 -5.6338185635 0.3543119110 1 1 1.0
306 3 33.1500000000 -5.8766573598 0.6387533045 1 1 1.0
307 4 33.5400000000 -6.2381972548 0.7344951014 1 1 1.0
308 4 33.9300000000 -6.5899857555 0.6075209384 1 1 1.0
309 3 34.3200000000 -6.8070349685 0.3029438111 1 1 1.0
310 4 34.7100000000 -6.8122288886 -0.0710222441 1 1 1.0
311 2 35.1000000000 -6.6037221537 -0.3815098104 1 1 1.0
312 2 35.4900000000 -6.2555956888 -0.5182049156 1 1 1.0
313 3 35.8800000000 -5.8915362928 -0.4325407839 1 1 1.0
314 4 36.2700000000 -5.6408916187 -0.1549532577 1 1 1.0
315 2 36.6600000000 -5.5927138948 0.2159328357 1 1 1.0
316 1 37.0500000000 -5.7641203155 0.5483443671 1 1 1.0
317 1 37.4400000000 -6.0942114275 0.7241779394 1 1 1.0
318 4 37.8300000000 -6.4657082615 0.6809611642 1 1 1.0
319 1 38.2200000000 -6.7466206967 0.4340486472 1 1 1.0
320 1 38.6100000000 -6.8371425900 0.0711666083 1 1 1.0
321 1 39.0000000000 -6.7051121715 -0.2787556057 1 1 1.0
322 3 39.3900000000 -6.3974388878 -0.4913931796 1 1 1.0
323 3 39.7800000000 -6.0234368169 -0.4911975313 1 1 1.0
324 1 40.1700000000 -5.7159861720 -0.2782381731 1 1 1.0
325 4 40.5600000000 -5.5843219290 0.0718219853 1 1 1.0
326 4 40.9500000000 -5.6752234351 0.4346091178 1 1 1.0
327 3 41.3400000000 -5.9563940469 0.6812275972 1 1 1.0
328 3 41.7300000000 -6.3279358927 0.7240556732 1 1 1.0
329 3 42.1200000000 -6.6578428596 0.5478768420 1 1 1.0
330 3 42.5100000000 -6.8289014036 0.2152861599 1 1 1.0
331 4 42.5100000000 -8.3889014036 0.2152861599 1 1 1.0
332 2 42.1200000000 -8.4374671378 -0.1555493249 1 1 1.0
333 2 41.7300000000 -8.6884020983 -0.4328744642 1 1 1.0
334 4 41.3400000000 -9.0525509205 -0.5181576548 1 1 1.0
335 3 40.9500000000 -9.4005341787 -0.3810984000 1 1 1.0
336 4 40.5600000000 -9.6087159544 -0.0703928552 1 1 1.0
337 3 40.1700000000 -9.6031307783 0.3035675614 1 1 1.0
338 2 39.7800000000 -9.3857630226 0.6079174359 1 1 1.0
339 3 39.3900000000 -9.0338418688 0.7345234736 1 1 1.0
340 2 39.0000000000 -8.6724023408 0.6384034708 1 1 1.0
341 3 38.6100000000 -8.4298612718 0.3537081650 1 1 1.0
342 1 38.2200000000 -8.3923917381 -0.0184122744 1 1 1.0
343 1 37.8300000000 -8.5733063922 -0.3457461639 1 1 1.0
344 1 37.4400000000 -8.9083275744 -0.5119941557 1 1 1.0
345 4 37.0500000000 -9.2784246977 -0.4580895483 1 1 1.0
346 2 36.6600000000 -9.5521049481 -0.2031842564 1 1 1.0
347 4 36.2700000000 -9.6321317251 0.1621557253 1 1 1.0
348 4 35.8800000000 -9.4900720974 0.5081277610 1 1 1.0
349 4 35.4900000000 -9.1763988165 0.7118105049 1 1 1.0
350 1 35.1000000000 -8.8025577157 0.7008369608 1 1 1.0
351 1 34.7100000000 -8.5013718167 0.4791059491 1 1 1.0
352 1 34.3200000000 -8.3798502769 0.1253968840 1 1 1.0
353 2 33.9300000000 -8.4811688148 -0.2346199783 1 1 1.0
354 2 33.5400000000 -8.7693296914 -0.4730332677 1 1 1.0
355 1 33.1500000000 -9.1419514449 -0.5051364778 1 1 1.0
356 4 32.7600000000 -9.4666442789 -0.3195235718 1 1 1.0
357 4 32.3700000000 -9.6280471931 0.0178585359 1 1 1.0
358 1 31.9800000000 -9.5688149071 0.3871404385 1 1 1.0
359 2 31.5900000000 -9.3099922208 0.6571189642 1 1 1.0
360 2 31.2000000000 -8.9435369506 0.7318727083 1 1 1.0
361 1 30.8100000000 -8.5996479863 0.5848422095 1 1 1.0
362 3 30.4200000000 -8.4005065736 0.2682663339 1 1 1.0
363 1 30.0300000000 -8.4168662067 -0.1053778146 1 1 1.0
364 3 29.6400000000 -8.6429144271 -0.4033371900 1 1 1.0
365 1 29.2500000000 -8.9983379476 -0.5197489952 1 1 1.0
366 4 28.8600000000 -9.3568573787 -0.4132529633 1 1 1.0
367 4 28.4700000000 -9.5910933765 -0.1216863591 1 1 1.0
368 4 28.0800000000 -9.6178235960 0.2513593253 1 1 1.0
369 2 27.6900000000 -9.4275509849 0.5733436740 1 1 1.0
370 4 27.3000000000 -9.0878780168 0.7298679917 1 1 1.0
371 4 26.9100000000 -8.7194880245 0.6653203278 1 1 1.0
372 4 26.5200000000 -8.4532672906 0.4026339975 1 1 1.0
373 3 26.1300000000 -8.3838021038 0.0351395416 1 1 1.0
374 1 25.7400000000 -8.5357729394 -0.3065949350 1 1 1.0
375 2 25.3500000000 -8.8551856657 -0.5011536603 1 1 1.0
376 3 24.9600000000 -9.2285552662 -0.4794113357 1 1 1.0
377 1 24.5700000000 -9.5232262400 -0.2490928507 1 1 1.0
378 4 24.1800000000 -9.6345041351 0.1079713136 1 1 1.0
379 4 23.7900000000 -9.5228527254 0.4649188588 1 1 1.0
380 3 23.4000000000 -9.2279409441 0.6949289206 1 1 1.0
381 2 23.0100000000 -8.8545488001 0.7162805985 1 1 1.0
382 1 22.6200000000 -8.5353398042 0.5213877966 1 1 1.0
383 4 22.2300000000 -8.3837265887 0.1794945089 1 1 1.0
384 4 21.8400000000 -8.4535762256 -0.1879270685 1 1 1.0
385 1 21.4500000000 -8.7200716472 -0.4503347238 1 1 1.0
386 1 21.0600000000 -9.0885289703 -0.5144969273 1 1 1.0
387 2 20.6700000000 -9.4280379902 -0.3576173152 1 1 1.0
388 3 20.2800000000 -9.6179736237 -0.0354340715 1 1 1.0
389 4 19.8900000000 -9.5908531227 0.3375834425 1 1 1.0
390 2 19.5000000000 -9.3563122040 0.6289048195 1 1 1.0
391 2 19.1100000000 -8.9976815484 0.7350256951 1 1 1.0
392 4 18.7200000000 -8.6423800174 0.6182420946 1 1 1.0
393 2 18.3300000000 -8.4166436583 0.3200463812 1 1 1.0
394 3 17.9400000000 -8.4006749563 -0.0536146789 1 1 1.0
395 4 17.5500000000 -8.6001474750 -0.3699820313 1 1 1.0
396 3 17.1600000000 -8.9441900805 -0.5166526585 1 1 1.0
397 2 16.7700000000 -9.3105669397 -0.4415155545 1 1 1.0
398 3 16.3800000000 -9.5691070215 -0.1712663853 1 1 1.0
399 4 15.9900000000 -9.6279529169 0.1980772865 1 1 1.0
400 2 15.6000000000 -9.4661971077 0.5352903430 1 1 1.0
401 3 15.2100000000 -9.1413102554 0.7205634401 1 1 1.0
402 4 14.8200000000 -8.7687222935 0.6880703951 1 1 1.0
403 1 14.4300000000 -8.4808110126 0.4493557503 1 1 1.0
404 2 14.0400000000 -8.3798691950 0.0892330812 1 1 1.0
405 2 13.6500000000 -8.5017607335 -0.2643486493 1 1 1.0
406 3 13.2600000000 -8.8031784519 -0.4857644264 1 1 1.0
407 2 12.8700000000 -9.1770308291 -0.4963468362 1 1 1.0
408 1 12.4800000000 -9.4904908369 -0.2923360257 1 1 1.0
409 2 12.0900000000 -9.6321884164 0.0537844494 1 1 1.0
410 4 11.7000000000 -9.5517794492 0.4190405038 1 1 1.0
411 3 11.3100000000 -9.2778326559 0.6736593204 1 1 1.0
412 3 10.9200000000 -8.9076793380 0.7271766871 1 1 1.0
413 2 10.5300000000 -8.5728322747 0.5605782732 1 1 1.0
414 1 10.1400000000 -8.3922601901 0.2330552823 1 1 1.0
415 2 9.7500000000 -8.4301190313 -0.1390257511 1 1 1.0
416 4 9.3600000000 -8.6729578277 -0.4234671446 1 1 1.0
417 3 8.9700000000 -9.0344977226 -0.5192089415 1 1 1.0
418 2 8.5800000000 -9.3862862234 -0.3922347785 1 1 1.0
419 2 8.1900000000 -9.6033354364 -0.0876576513 1 1 1.0
420 4 7.8000000000 -9.6085293565 0.2863084040 1 1 1.0
421 1 7.4100000000 -9.4000226216 0.5967959703 1 1 1.0
422 2 7.0200000000 -9.0518961567 0.7334910755 1 1 1.0
423 2 6.6300000000 -8.6878367606 0.6478269437 1 1 1.0
424 2 6.2400000000 -8.4371920866 0.3702394176 1 1 1.0
425 4 5.8500000000 -8.3890143627 -0.0006466758 1 1 1.0
426 1 5.4600000000 -8.5604207834 -0.3330582072 1 1 1.0
427 1 5.0700000000 -8.8905118954 -0.5088917795 1 1 1.0
428 4 4.6800000000 -9.2620087294 -0.4656750043 1 1 1.0
429 4 4.2900000000 -9.5429211646 -0.2187624874 1 1 1.0
430 3 3.9000000000 -9.6334430579 0.1441195515 1 1 1.0
431 2 3.5100000000 -9.5014126394 0.4940417656 1 1 1.0
432 2 3.1200000000 -9.1937393557 0.7066793395 1 1 1.0
433 3 2.7300000000 -8.8197372848 0.7064836911 1 1 1.0
434 3 2.3400000000 -8.5122866399 0.4935243329 1 1 1.0
435 3 1.9500000000 -8.3806223969 0.1434641746 1 1 1.0
436 1 1.5600000000 -8.4715239030 -0.2193229579 1 1 1.0
437 2 1.1700000000 -8.7526945148 -0.4659414373 1 1 1.0
438 3 0.7800000000 -9.1242363606 -0.5087695133 1 1 1.0
439 4 0.3900000000 -9.4541433274 -0.3325906821 1 1 1.0
440 4 -0.0000000000 -9.6252018715 0.0000000000 1 1 1.0
441 1 -0.0000000000 -11.1852018715 0.0000000000 1 1 1.0
442 2 0.3900000000 -11.2337676057 0.3708354848 1 1 1.0
443 3 0.7800000000 -11.4847025662 0.6481606241 1 1 1.0
444 4 1.1700000000 -11.8488513884 0.7334438147 1 1 1.0
445 1 1.5600000000 -12.1968346466 0.5963845599 1 1 1.0
446 2 1.9500000000 -12.4050164223 0.2856790150 1 1 1.0
447 1 2.3400000000 -12.3994312461 -0.0882814015 1 1 1.0
448 1 2.7300000000 -12.1820634905 -0.3926312760 1 1 1.0
449 1 3.1200000000 -11.8301423366 -0.5192373137 1 1 1.0
450 2 3.5100000000 -11.4687028087 -0.4231173109 1 1 1.0
451 1 3.9000000000 -11.2261617397 -0.1384220051 1 1 1.0
452 3 4.2900000000 -11.1886922060 0.2336984342 1 1 1.0
453 4 4.6800000000 -11.3696068600 0.5610323238 1 1 1.0
454 2 5.0700000000 -11.7046280423 0.7272803155 1 1 1.0
455 4 5.4600000000 -12.0747251655 0.6733757082 1 1 1.0
456 1 5.8500000000 -12.3484054160 0.4184704163 1 1 1.0
457 3 6.2400000000 -12.4284321930 0.0531304346 1 1 1.0
458 1 6.6300000000 -12.2863725653 -0.2928416011 1 1 1.0
459 4 7.0200000000 -11.9726992844 -0.4965243450 1 1 1.0
460 2 7.4100000000 -11.5988581836 -0.4855508009 1 1 1.0
461 1 7.8000000000 -11.2976722846 -0.2638197892 1 1 1.0
462 4 8.1900000000 -11.1761507448 0.0898892758 1 1 1.0
463 2 8.5800000000 -11.2774692827 0.4499061382 1 1 1.0
464 1 8.9700000000 -11.5656301592 0.6883194275 1 1 1.0
465 3 9.3600000000 -11.9382519128 0.7204226377 1 1 1.0
466 1 9.7500000000 -12.2629447468 0.5348097317 1 1 1.0
467 1 10.1400000000 -12.4243476610 0.1974276240 1 1 1.0
468 2 10.5300000000 -12.3651153749 -0.1718542786 1 1 1.0
469 3 10.9200000000 -12.1062926887 -0.4418328044 1 1 1.0
470 1 11.3100000000 -11.7398374184 -0.5165865484 1 1 1.0
471 2 11.7000000000 -11.3959484542 -0.3695560497 1 1 1.0
472 4 12.0900000000 -11.1968070414 -0.0529801740 1 1 1.0
473 1 12.4800000000 -11.2131666746 0.3206639745 1 1 1.0
474 2 12.8700000000 -11.4392148949 0.6186233499 1 1 1.0
475 2 13.2600000000 -11.7946384154 0.7350351551 1 1 1.0
476 2 13.6500000000 -12.1531578466 0.6285391232 1 1 1.0
477 4 14.0400000000 -12.3873938443 0.3369725190 1 1 1.0
478 4 14.4300000000 -12.4141240639 -0.0360731654 1 1 1.0
479 2 14.8200000000 -12.2238514528 -0.3580575141 1 1 1.0
480 3 15.2100000000 -11.8841784847 -0.5145818318 1 1 1.0
481 3 15.6000000000 -11.5157884924 -0.4500341680 1 1 1.0
482 1 15.9900000000 -11.2495677585 -0.1873478376 1 1 1.0
483 3 16.3800000000 -11.1801025717 0.1801466183 1 1 1.0
484 3 16.7700000000 -11.3320734073 0.5218810949 1 1 1.0
485 3 17.1600000000 -11.6514861336 0.7164398202 1 1 1.0
486 4 17.5500000000 -12.0248557341 0.6946974955 1 1 1.0
487 4 17.9400000000 -12.3195267079 0.4643790105 1 1 1.0
488 2 18.3300000000 -12.4308046030 0.1073148463 1 1 1.0
489 1 18.7200000000 -12.3191531933 -0.2496326989 1 1 1.0
490 3 19.1100000000 -12.0242414120 -0.4796427607 1 1 1.0
491 1 19.5000000000 -11.6508492680 -0.5009944386 1 1 1.0
492 3 19.8900000000 -11.3316402720 -0.3061016367 1 1 1.0
493 3 20.2800000000 -11.1800270566 0.0357916510 1 1 1.0
494 1 20.6700000000 -11.2498766934 0.4032132284 1 1 1.0
495 3 21.0600000000 -11.5163721151 0.6656208837 1 1 1.0
496 3 21.4500000000 -11.8848294382 0.7297830872 1 1 1.0
497 3 21.8400000000 -12.2243384581 0.5729034750 1 1 1.0
498 4 22.2300000000 -12.4142740916 0.2507202314 1 1 1.0
499 4 22.6200000000 -12.3871535906 -0.1222972826 1 1 1.0
500 4 23.0100000000 -12.1526126718 -0.4136186596 1 1 1.0
501 4 23.4000000000 -11.7939820163 -0.5197395352 1 1 1.0
502 1 23.7900000000 -11.4386804853 -0.4029559347 1 1 1.0
503 3 24.1800000000 -11.2129441262 -0.1047602213 1 1 1.0
504 3 24.5700000000 -11.1969754242 0.2689008388 1 1 1.0
505 1 24.9600000000 -11.3964479429 0.5852681911 1 1 1.0
506 1 25.3500000000 -11.7404905484 0.7319388184 1 1 1.0
507 3 25.7400000000 -12.1068674075 0.6568017144 1 1 1.0
508 3 26.1300000000 -12.3654074893 0.3865525452 1 1 1.0
509 3 26.5200000000 -12.4242533848 0.0172088734 1 1 1.0
510 3 26.9100000000 -12.2624975756 -0.3200041831 1 1 1.0
511 2 27.3000000000 -11.9376107233 -0.5052772802 1 1 1.0
512 1 27.6900000000 -11.5650227614 -0.4727842352 1 1 1.0
513 1 28.0800000000 -11.2771114805 -0.2340695904 1 1 1.0
514 4 28.4700000000 -11.1761696628 0.1260530787 1 1 1.0
515 2 28.8600000000 -11.2980612014 0.4796348092 1 1 1.0
516 4 29.2500000000 -11.5994789198 0.7010505863 1 1 1.0
517 2 29.6400000000 -11.9733312970 0.7116329961 1 1 1.0
518 2 30.0300000000 -12.2867913048 0.5076221856 1 1 1.0
519 3 30.4200000000 -12.4284888843 0.1615017105 1 1 1.0
520 3 30.8100000000 -12.3480799171 -0.2037543439 1 1 1.0
521 4 31.2000000000 -12.0741331238 -0.4583731605 1 1 1.0
522 4 31.5900000000 -11.7039798059 -0.5118905273 1 1 1.0
523 3 31.9800000000 -11.3691327426 -0.3452921133 1 1 1.0
524 3 32.3700000000 -11.1885606580 -0.0177691224 1 1 1.0
525 4 32.7600000000 -11.2264194992 0.3543119110 1 1 1.0
526 4 33.1500000000 -11.4692582956 0.6387533045 1 1 1.0
527 3 33.5400000000 -11.8307981905 0.7344951014 1 1 1.0
528 3 33.9300000000 -12.1825866912 0.6075209384 1 1 1.0
529 1 34.3200000000 -12.3996359043 0.3029438111 1 1 1.0
530 4 34.7100000000 -12.4048298244 -0.0710222441 1 1 1.0
531 1 35.1000000000 -12.1963230894 -0.3815098104 1 1 1.0
532 1 35.4900000000 -11.8481966246 -0.5182049156 1 1 1.0
533 2 35.8800000000 -11.4841372285 -0.4325407839 1 1 1.0
534 1 36.2700000000 -11.2334925545 -0.1549532577 1 1 1.0
535 2 36.6600000000 -11.1853148305 0.2159328357 1 1 1.0
536 3 37.0500000000 -11.3567212513 0.5483443671 1 1 1.0
537 3 37.4400000000 -11.6868123632 0.7241779394 1 1 1.0
538 2 37.8300000000 -12.0583091972 0.6809611642 1 1 1.0
539 4 38.2200000000 -12.3392216325 0.4340486472 1 1 1.0
540 2 38.6100000000 -12.4297435257 0.0711666083 1 1 1.0