# LAMMPS data file
793 atoms
793 ellipsoids
792 bonds

4 atom types
1 bond types

0.0 50.0 xlo xhi
0.0 50.0 ylo yhi
0.0 50.0 zlo zhi

Masses

1 3.1575
2 3.1575
3 3.1575
4 3.1575

Atoms

1 3 32.0000000000 0.0000000000 0.0000000000 1 1 1.0
2 4 32.3900000000 -0.0572089543 0.3788394106 1 1 1.0
3 3 32.7800000000 -0.3261681891 0.6517003522 1 1 1.0
4 3 33.1700000000 -0.7041444182 0.7143592194 1 1 1.0
5 2 33.5600000000 -1.0467635692 0.5428824546 1 1 1.0
6 1 33.9500000000 -1.2231567714 0.2027683537 1 1 1.0
7 4 34.3400000000 -1.1659478171 -0.1760710568 1 1 1.0
8 2 34.7300000000 -0.8969885823 -0.4489319985 1 1 1.0
9 2 35.1200000000 -0.5190123532 -0.5115908657 1 1 1.0
10 4 35.5100000000 -0.1763932023 -0.3401141009 1 1 1.0
11 1 35.9000000000 0.0000000000 0.0000000000 1 1 1.0
12 1 36.2900000000 -0.0572089543 0.3788394106 1 1 1.0
13 4 36.6800000000 -0.3261681891 0.6517003522 1 1 1.0
14 4 37.0700000000 -0.7041444182 0.7143592194 1 1 1.0
15 1 37.4600000000 -1.0467635692 0.5428824546 1 1 1.0
16 4 37.8500000000 -1.2231567714 0.2027683537 1 1 1.0
17 1 38.2400000000 -1.1659478171 -0.1760710568 1 1 1.0
18 2 38.6300000000 -0.8969885823 -0.4489319985 1 1 1.0
19 2 39.0200000000 -0.5190123532 -0.5115908657 1 1 1.0
20 4 39.4100000000 -0.1763932023 -0.3401141009 1 1 1.0
21 1 39.8000000000 0.0000000000 0.0000000000 1 1 1.0
22 2 40.1900000000 -0.0572089543 0.3788394106 1 1 1.0
23 3 40.5800000000 -0.3261681891 0.6517003522 1 1 1.0
24 1 40.9700000000 -0.7041444182 0.7143592194 1 1 1.0
25 1 41.3600000000 -1.0467635692 0.5428824546 1 1 1.0
26 1 41.7500000000 -1.2231567714 0.2027683537 1 1 1.0
27 3 41.7500000000 -2.7831567714 0.2027683537 1 1 1.0
28 3 41.3600000000 -2.8403657257 -0.1760710568 1 1 1.0
29 4 40.9700000000 -3.1093249605 -0.4489319985 1 1 1.0
30 4 40.5800000000 -3.4873011896 -0.5115908657 1 1 1.0
31 3 40.1900000000 -3.8299203406 -0.3401141009 1 1 1.0
32 2 39.8000000000 -4.0063135428 -0.0000000000 1 1 1.0
33 4 39.4100000000 -3.9491045885 0.3788394106 1 1 1.0
34 1 39.0200000000 -3.6801453537 0.6517003522 1 1 1.0
35 3 38.6300000000 -3.3021691246 0.7143592194 1 1 1.0
36 2 38.2400000000 -2.9595499737 0.5428824546 1 1 1.0
37 3 37.8500000000 -2.7831567714 0.2027683537 1 1 1.0
38 2 37.4600000000 -2.8403657257 -0.1760710568 1 1 1.0
39 3 37.0700000000 -3.1093249605 -0.4489319985 1 1 1.0
40 1 36.6800000000 -3.4873011896 -0.5115908657 1 1 1.0
41 3 36.2900000000 -3.8299203406 -0.3401141009 1 1 1.0
42 2 35.9000000000 -4.0063135428 -0.0000000000 1 1 1.0
43 2 35.5100000000 -3.9491045885 0.3788394106 1 1 1.0
44 1 35.1200000000 -3.6801453537 0.6517003522 1 1 1.0
45 4 34.7300000000 -3.3021691246 0.7143592194 1 1 1.0
46 1 34.3400000000 -2.9595499737 0.5428824546 1 1 1.0
47 2 33.9500000000 -2.7831567714 0.2027683537 1 1 1.0
48 2 33.5600000000 -2.8403657257 -0.1760710568 1 1 1.0
49 2 33.1700000000 -3.1093249605 -0.4489319985 1 1 1.0
50 1 32.7800000000 -3.4873011896 -0.5115908657 1 1 1.0
51 4 32.3900000000 -3.8299203406 -0.3401141009 1 1 1.0
52 4 32.0000000000 -4.0063135428 -0.0000000000 1 1 1.0
53 3 32.0000000000 -5.5663135428 -0.0000000000 1 1 1.0
54 3 32.3900000000 -5.6235224971 0.3788394106 1 1 1.0
55 3 32.7800000000 -5.8924817319 0.6517003522 1 1 1.0
56 1 33.1700000000 -6.2704579610 0.7143592194 1 1 1.0
57 2 33.5600000000 -6.6130771120 0.5428824546 1 1 1.0
58 1 33.9500000000 -6.7894703142 0.2027683537 1 1 1.0
59 4 34.3400000000 -6.7322613599 -0.1760710568 1 1 1.0
60 4 34.7300000000 -6.4633021251 -0.4489319985 1 1 1.0
61 3 35.1200000000 -6.0853258960 -0.5115908657 1 1 1.0
62 1 35.5100000000 -5.7427067451 -0.3401141009 1 1 1.0
63 2 35.9000000000 -5.5663135428 -0.0000000000 1 1 1.0
64 3 36.2900000000 -5.6235224971 0.3788394106 1 1 1.0
65 2 36.6800000000 -5.8924817319 0.6517003522 1 1 1.0
66 1 37.0700000000 -6.2704579610 0.7143592194 1 1 1.0
67 3 37.4600000000 -6.6130771120 0.5428824546 1 1 1.0
68 4 37.8500000000 -6.7894703142 0.2027683537 1 1 1.0
69 1 38.2400000000 -6.7322613599 -0.1760710568 1 1 1.0
70 1 38.6300000000 -6.4633021251 -0.4489319985 1 1 1.0
71 1 39.0200000000 -6.0853258960 -0.5115908657 1 1 1.0
72 2 39.4100000000 -5.7427067451 -0.3401141009 1 1 1.0
73 2 39.8000000000 -5.5663135428 -0.0000000000 1 1 1.0
74 3 40.1900000000 -5.6235224971 0.3788394106 1 1 1.0
75 2 40.5800000000 -5.8924817319 0.6517003522 1 1 1.0
76 3 40.9700000000 -6.2704579610 0.7143592194 1 1 1.0
77 2 41.3600000000 -6.6130771120 0.5428824546 1 1 1.0
78 3 41.7500000000 -6.7894703142 0.2027683537 1 1 1.0
79 2 41.7500000000 -8.3494703142 0.2027683537 1 1 1.0
80 3 41.3600000000 -8.4066792685 -0.1760710568 1 1 1.0
81 3 40.9700000000 -8.6756385033 -0.4489319985 1 1 1.0
82 4 40.5800000000 -9.0536147324 -0.5115908657 1 1 1.0
83 4 40.1900000000 -9.3962338834 -0.3401141009 1 1 1.0
84 3 39.8000000000 -9.5726270856 -0.0000000000 1 1 1.0
85 1 39.4100000000 -9.5154181313 0.3788394106 1 1 1.0
86 3 39.0200000000 -9.2464588965 0.6517003522 1 1 1.0
87 4 38.6300000000 -8.8684826674 0.7143592194 1 1 1.0
88 2 38.2400000000 -8.5258635165 0.5428824546 1 1 1.0
89 2 37.8500000000 -8.3494703142 0.2027683537 1 1 1.0
90 1 37.4600000000 -8.4066792685 -0.1760710568 1 1 1.0
91 1 37.0700000000 -8.6756385033 -0.4489319985 1 1 1.0
92 1 36.6800000000 -9.0536147324 -0.5115908657 1 1 1.0
93 4 36.2900000000 -9.3962338834 -0.3401141009 1 1 1.0
94 4 35.9000000000 -9.5726270856 -0.0000000000 1 1 1.0
95 4 35.5100000000 -9.5154181313 0.3788394106 1 1 1.0
96 3 35.1200000000 -9.2464588965 0.6517003522 1 1 1.0
97 4 34.7300000000 -8.8684826674 0.7143592194 1 1 1.0
98 1 34.3400000000 -8.5258635165 0.5428824546 1 1 1.0
99 1 33.9500000000 -8.3494703142 0.2027683537 1 1 1.0
100 2 33.5600000000 -8.4066792685 -0.1760710568 1 1 1.0
101 3 33.1700000000 -8.6756385033 -0.4489319985 1 1 1.0
102 2 32.7800000000 -9.0536147324 -0.5115908657 1 1 1.0
103 3 32.3900000000 -9.3962338834 -0.3401141009 1 1 1.0
104 1 32.0000000000 -9.5726270856 -0.0000000000 1 1 1.0
105 4 32.0000000000 -11.1326270856 -0.0000000000 1 1 1.0
106 1 32.3900000000 -11.1856071372 0.3749695393 1 1 1.0
107 1 32.7800000000 -11.4457997035 0.6501219875 1 1 1.0
108 2 33.1700000000 -11.8172254028 0.7239595877 1 1 1.0
109 4 33.5600000000 -12.1628733687 0.5692452542 1 1 1.0
110 4 33.9500000000 -12.3552415802 0.2430497415 1 1 1.0
111 2 34.3400000000 -12.3233695857 -0.1343005166 1 1 1.0
112 4 34.7300000000 -12.0790142713 -0.4236092127 1 1 1.0
113 4 35.1200000000 -11.7123130006 -0.5181566577 1 1 1.0
114 2 35.5100000000 -11.3585339011 -0.3830663545 1 1 1.0
115 4 35.9000000000 -11.1481783921 -0.0681701793 1 1 1.0
116 2 36.2900000000 -11.1588420482 0.3103735140 1 1 1.0
117 1 36.6800000000 -11.3865912786 0.6129281857 1 1 1.0
118 3 37.0700000000 -11.7474143428 0.7278879944 1 1 1.0
119 2 37.4600000000 -12.1082114561 0.6128467655 1 1 1.0
120 2 37.8500000000 -12.3358924063 0.3102407078 1 1 1.0
121 4 38.2400000000 -12.3464706403 -0.0683053823 1 1 1.0
122 1 38.6300000000 -12.1360440774 -0.3831540807 1 1 1.0
123 2 39.0200000000 -11.7822345024 -0.5181645469 1 1 1.0
124 2 39.4100000000 -11.4155545766 -0.4235343547 1 1 1.0
125 3 39.8000000000 -11.1712645536 -0.1341705249 1 1 1.0
126 2 40.1900000000 -11.1394777126 0.2431869157 1 1 1.0
127 3 40.5800000000 -11.3319195283 0.5693390104 1 1 1.0
128 3 40.9700000000 -11.6776023981 0.7239753413 1 1 1.0
129 4 41.3600000000 -12.0490114258 0.6500539273 1 1 1.0
130 4 41.7500000000 -12.3091418947 0.3748427712 1 1 1.0
131 1 42.1400000000 -12.3620373296 -0.0001387140 1 1 1.0
132 1 42.5300000000 -12.1881857543 -0.3365680098 1 1 1.0
133 1 42.9200000000 -11.8517172358 -0.5103436622 1 1 1.0
134 3 43.3100000000 -11.4767476965 -0.4573636106 1 1 1.0
135 2 43.7000000000 -11.2015952483 -0.1971710443 1 1 1.0
136 2 44.0900000000 -11.1277576482 0.1742546550 1 1 1.0
137 3 44.4800000000 -11.2824719817 0.5199026209 1 1 1.0
138 2 44.8700000000 -11.6086674944 0.7122708323 1 1 1.0
139 2 45.2600000000 -11.9860177525 0.6803988379 1 1 1.0
140 3 45.6500000000 -12.2753264485 0.4360435235 1 1 1.0
141 2 46.0400000000 -12.3698738935 0.0693422528 1 1 1.0
142 1 46.4300000000 -12.2347835903 -0.2844368468 1 1 1.0
143 1 46.8200000000 -11.9198874151 -0.4947923557 1 1 1.0
144 1 47.2100000000 -11.5413437218 -0.4841286996 1 1 1.0
145 1 47.6000000000 -11.2387890501 -0.2563794693 1 1 1.0
146 2 47.9900000000 -11.1238292415 0.1044435950 1 1 1.0
147 3 48.3800000000 -11.2388704703 0.4652407083 1 1 1.0
148 3 48.7700000000 -11.5414765281 0.6929216585 1 1 1.0
149 4 49.1600000000 -11.9200226181 0.7034998925 1 1 1.0
150 1 49.5500000000 -12.2348713165 0.4930733295 1 1 1.0
151 2 49.9400000000 -12.3698817827 0.1392637546 1 1 1.0
152 3 50.3300000000 -12.2752515905 -0.2274161712 1 1 1.0
153 1 50.7200000000 -11.9858877608 -0.4717061942 1 1 1.0
154 4 51.1100000000 -11.6085303201 -0.5034930352 1 1 1.0
155 1 51.5000000000 -11.2823782254 -0.3110512195 1 1 1.0
156 4 51.8900000000 -11.1277418945 0.0346316503 1 1 1.0
157 4 52.2800000000 -11.2016633085 0.4060406780 1 1 1.0
158 3 52.6700000000 -11.4768744646 0.6661711469 1 1 1.0
159 4 53.0600000000 -11.8518559498 0.7190665818 1 1 1.0
160 3 53.4500000000 -12.1882852456 0.5452150065 1 1 1.0
161 4 53.8400000000 -12.3620608980 0.2087464880 1 1 1.0
162 1 53.8400000000 -13.9220608980 0.2087464880 1 1 1.0
163 4 53.4500000000 -13.9712343874 -0.1626640118 1 1 1.0
164 1 53.0600000000 -14.2234503287 -0.4397035584 1 1 1.0
165 1 52.6700000000 -14.5886276675 -0.5234251367 1 1 1.0
166 3 52.2800000000 -14.9363402316 -0.3839268777 1 1 1.0
167 1 51.8900000000 -15.1423995405 -0.0710317632 1 1 1.0
168 1 51.5000000000 -15.1332097709 0.3035070727 1 1 1.0
169 3 51.1100000000 -14.9120531268 0.6059199200 1 1 1.0
170 2 50.7200000000 -14.5579175722 0.7281974749 1 1 1.0
171 1 50.3300000000 -14.1972856129 0.6266672756 1 1 1.0
172 3 49.9400000000 -13.9589600004 0.3375916906 1 1 1.0
173 1 49.5500000000 -13.9280607409 -0.0357834923 1 1 1.0
174 3 49.1600000000 -14.1156237661 -0.3601041716 1 1 1.0
175 3 48.7700000000 -14.4546593567 -0.5195364763 1 1 1.0
176 4 48.3800000000 -14.8240780867 -0.4571378115 1 1 1.0
177 1 47.9900000000 -15.0919389353 -0.1951943876 1 1 1.0
178 3 47.6000000000 -15.1625731369 0.1727384881 1 1 1.0
179 4 47.2100000000 -15.0107530896 0.5152504801 1 1 1.0
180 3 46.8200000000 -14.6907026062 0.7100105364 1 1 1.0
181 2 46.4300000000 -14.3167304212 0.6874584572 1 1 1.0
182 2 46.0400000000 -14.0224038604 0.4556489081 1 1 1.0
183 1 45.6500000000 -13.9128441420 0.0973746283 1 1 1.0
184 3 45.2600000000 -14.0271814451 -0.2594036958 1 1 1.0
185 2 44.8700000000 -14.3245792359 -0.4872596711 1 1 1.0
186 2 44.4800000000 -14.6988193804 -0.5048126106 1 1 1.0
187 1 44.0900000000 -15.0162388488 -0.3057933338 1 1 1.0
188 3 43.7000000000 -15.1634685958 0.0387167430 1 1 1.0
189 2 43.3100000000 -15.0879242732 0.4056729350 1 1 1.0
190 4 42.9200000000 -14.8165871742 0.6640137373 1 1 1.0
191 2 42.5300000000 -14.4463676364 0.7214705495 1 1 1.0
192 1 42.1400000000 -14.1094926960 0.5575221858 1 1 1.0
193 1 41.7500000000 -13.9262800844 0.2307241894 1 1 1.0
194 4 41.3600000000 -13.9621657341 -0.1422047738 1 1 1.0
195 4 40.9700000000 -14.2043327820 -0.4280699735 1 1 1.0
196 3 40.5800000000 -14.5662892206 -0.5247722381 1 1 1.0
197 1 40.1900000000 -14.9187592496 -0.3977735366 1 1 1.0
198 2 39.8000000000 -15.1358552197 -0.0924325285 1 1 1.0
199 3 39.4100000000 -15.1400394708 0.2821956651 1 1 1.0
200 2 39.0200000000 -14.9298175623 0.5923094195 1 1 1.0
201 1 38.6300000000 -14.5802720251 0.7271489868 1 1 1.0
202 4 38.2400000000 -14.2162460015 0.6385552762 1 1 1.0
203 1 37.8500000000 -13.9677544616 0.3581702800 1 1 1.0
204 4 37.4600000000 -13.9235482587 -0.0138641311 1 1 1.0
205 3 37.0700000000 -14.0994160116 -0.3446727237 1 1 1.0
206 2 36.6800000000 -14.4325450664 -0.5161044137 1 1 1.0
207 2 36.2900000000 -14.8039555662 -0.4669309243 1 1 1.0
208 3 35.9000000000 -15.0809951128 -0.2147149830 1 1 1.0
209 1 35.5100000000 -15.1647166911 0.1504623558 1 1 1.0
210 1 35.1200000000 -15.0252184321 0.4981749199 1 1 1.0
211 1 34.7300000000 -14.7123233176 0.7042342288 1 1 1.0
212 1 34.3400000000 -14.3377844817 0.6950444592 1 1 1.0
213 3 33.9500000000 -14.0353716344 0.4738878151 1 1 1.0
214 3 33.5600000000 -13.9130940794 0.1197522605 1 1 1.0
215 3 33.1700000000 -14.0146242788 -0.2408796988 1 1 1.0
216 3 32.7800000000 -14.3036998638 -0.4792053113 1 1 1.0
217 4 32.3900000000 -14.6770750467 -0.5101045708 1 1 1.0
218 1 32.0000000000 -15.0013957260 -0.3225415456 1 1 1.0
219 3 31.6100000000 -15.1608280307 0.0164940450 1 1 1.0
220 2 31.2200000000 -15.0984293659 0.3859127750 1 1 1.0
221 3 30.8300000000 -14.8364859420 0.6537736236 1 1 1.0
222 1 30.4400000000 -14.4685530663 0.7244078252 1 1 1.0
223 3 30.0500000000 -14.1260410743 0.5725877779 1 1 1.0
224 2 29.6600000000 -13.9312810180 0.2525372945 1 1 1.0
225 4 29.2700000000 -13.9538330972 -0.1214348905 1 1 1.0
226 3 28.8800000000 -14.1856426463 -0.4157614513 1 1 1.0
227 1 28.4900000000 -14.5439169260 -0.5253211697 1 1 1.0
228 3 28.1000000000 -14.9006952502 -0.4109838666 1 1 1.0
229 1 27.7100000000 -15.1285512255 -0.1135860758 1 1 1.0
230 4 27.3200000000 -15.1461041650 0.2606540687 1 1 1.0
231 2 26.9300000000 -14.9470848882 0.5780735371 1 1 1.0
232 3 26.5400000000 -14.6025748113 0.7253032841 1 1 1.0
233 4 26.1500000000 -14.2356186194 0.6497589615 1 1 1.0
234 4 25.7600000000 -13.9772778171 0.3784218625 1 1 1.0
235 1 25.3700000000 -13.9198210048 0.0082023247 1 1 1.0
236 4 24.9800000000 -14.0837693686 -0.3286726157 1 1 1.0
237 2 24.5900000000 -14.4105673650 -0.5118852272 1 1 1.0
238 2 24.2000000000 -14.7834963282 -0.4759995776 1 1 1.0
239 4 23.8100000000 -15.0693615279 -0.2338325297 1 1 1.0
240 4 23.4200000000 -15.1660637925 0.1281239089 1 1 1.0
241 2 23.0300000000 -15.0390650910 0.4805939379 1 1 1.0
242 2 22.6400000000 -14.7337240829 0.6976899080 1 1 1.0
243 3 22.2500000000 -14.3590958893 0.7018741591 1 1 1.0
244 2 21.8600000000 -14.0489821349 0.4916522506 1 1 1.0
245 1 21.4700000000 -13.9141425676 0.1421067134 1 1 1.0
246 2 21.0800000000 -14.0027362782 -0.2219193102 1 1 1.0
247 2 20.6900000000 -14.2831212744 -0.4704108501 1 1 1.0
248 3 20.3000000000 -14.6551556855 -0.5146170530 1 1 1.0
249 2 19.9100000000 -14.9859642781 -0.3387493001 1 1 1.0
250 2 19.5200000000 -15.1573959681 -0.0056202453 1 1 1.0
251 3 19.5200000000 -16.7173959681 -0.0056202453 1 1 1.0
252 3 19.9100000000 -16.7665694574 0.3657902545 1 1 1.0
253 4 20.3000000000 -17.0187853987 0.6428298011 1 1 1.0
254 4 20.6900000000 -17.3839627375 0.7265513794 1 1 1.0
255 2 21.0800000000 -17.7316753016 0.5870531204 1 1 1.0
256 2 21.4700000000 -17.9377346105 0.2741580059 1 1 1.0
257 4 21.8600000000 -17.9285448409 -0.1003808300 1 1 1.0
258 2 22.2500000000 -17.7073881968 -0.4027936773 1 1 1.0
259 4 22.6400000000 -17.3532526423 -0.5250712322 1 1 1.0
260 2 23.0300000000 -16.9926206829 -0.4235410329 1 1 1.0
261 1 23.4200000000 -16.7542950704 -0.1344654479 1 1 1.0
262 1 23.8100000000 -16.7233958109 0.2389097350 1 1 1.0
263 1 24.2000000000 -16.9109588361 0.5632304143 1 1 1.0
264 2 24.5900000000 -17.2499944267 0.7226627190 1 1 1.0
265 1 24.9800000000 -17.6194131568 0.6602640542 1 1 1.0
266 4 25.3700000000 -17.8872740053 0.3983206303 1 1 1.0
267 2 25.7600000000 -17.9579082069 0.0303877546 1 1 1.0
268 2 26.1500000000 -17.8060881596 -0.3121242374 1 1 1.0
269 4 26.5400000000 -17.4860376762 -0.5068842937 1 1 1.0
270 4 26.9300000000 -17.1120654912 -0.4843322145 1 1 1.0
271 3 27.3200000000 -16.8177389304 -0.2525226654 1 1 1.0
272 4 27.7100000000 -16.7081792120 0.1057516143 1 1 1.0
273 1 28.1000000000 -16.8225165151 0.4625299385 1 1 1.0
274 3 28.4900000000 -17.1199143059 0.6903859138 1 1 1.0
275 1 28.8800000000 -17.4941544504 0.7079388533 1 1 1.0
276 4 29.2700000000 -17.8115739188 0.5089195765 1 1 1.0
277 2 29.6600000000 -17.9588036658 0.1644094997 1 1 1.0
278 1 30.0500000000 -17.8832593432 -0.2025466923 1 1 1.0
279 4 30.4400000000 -17.6119222442 -0.4608874946 1 1 1.0
280 2 30.8300000000 -17.2417027064 -0.5183443068 1 1 1.0
281 4 31.2200000000 -16.9048277660 -0.3543959431 1 1 1.0
282 3 31.6100000000 -16.7216151545 -0.0275979467 1 1 1.0
283 1 32.0000000000 -16.7575008041 0.3453310165 1 1 1.0
284 4 32.3900000000 -16.9996678520 0.6311962162 1 1 1.0
285 2 32.7800000000 -17.3616242907 0.7278984808 1 1 1.0
286 2 33.1700000000 -17.7140943196 0.6008997793 1 1 1.0
287 3 33.5600000000 -17.9311902897 0.2955587712 1 1 1.0
288 3 33.9500000000 -17.9353745408 -0.0790694224 1 1 1.0
289 4 34.3400000000 -17.7251526323 -0.3891831768 1 1 1.0
290 1 34.7300000000 -17.3756070951 -0.5240227441 1 1 1.0
291 3 35.1200000000 -17.0115810715 -0.4354290335 1 1 1.0
292 1 35.5100000000 -16.7630895316 -0.1550440373 1 1 1.0
293 4 35.9000000000 -16.7188833287 0.2169903738 1 1 1.0
294 1 36.2900000000 -16.8947510816 0.5477989664 1 1 1.0
295 1 36.6800000000 -17.2278801364 0.7192306564 1 1 1.0
296 3 37.0700000000 -17.5992906362 0.6700571670 1 1 1.0
297 1 37.4600000000 -17.8763301828 0.4178412257 1 1 1.0
298 2 37.8500000000 -17.9600517612 0.0526638869 1 1 1.0
299 3 38.2400000000 -17.8205535021 -0.2950486772 1 1 1.0
300 4 38.6300000000 -17.5076583876 -0.5011079861 1 1 1.0
301 4 39.0200000000 -17.1331195517 -0.4919182165 1 1 1.0
302 1 39.4100000000 -16.8307067044 -0.2707615724 1 1 1.0
303 3 39.8000000000 -16.7084291495 0.0833739822 1 1 1.0
304 4 40.1900000000 -16.8099593488 0.4440059415 1 1 1.0
305 2 40.5800000000 -17.0990349338 0.6823315540 1 1 1.0
306 1 40.9700000000 -17.4724101167 0.7132308135 1 1 1.0
307 4 41.3600000000 -17.7967307960 0.5256677883 1 1 1.0
308 4 41.7500000000 -17.9561631007 0.1866321977 1 1 1.0
309 2 42.1400000000 -17.8937644359 -0.1827865323 1 1 1.0
310 4 42.5300000000 -17.6318210121 -0.4506473809 1 1 1.0
311 4 42.9200000000 -17.2638881364 -0.5212815825 1 1 1.0
312 3 43.3100000000 -16.9213761443 -0.3694615352 1 1 1.0
313 3 43.7000000000 -16.7266160880 -0.0494110518 1 1 1.0
314 3 44.0900000000 -16.7491681672 0.3245611332 1 1 1.0
315 3 44.4800000000 -16.9809777163 0.6188876940 1 1 1.0
316 2 44.8700000000 -17.3392519961 0.7284474124 1 1 1.0
317 1 45.2600000000 -17.6960303202 0.6141101093 1 1 1.0
318 1 45.6500000000 -17.9238862955 0.3167123185 1 1 1.0
319 3 46.0400000000 -17.9414392351 -0.0575278260 1 1 1.0
320 3 46.4300000000 -17.7424199582 -0.3749472944 1 1 1.0
321 3 46.8200000000 -17.3979098814 -0.5221770414 1 1 1.0
322 4 47.2100000000 -17.0309536895 -0.4466327188 1 1 1.0
323 2 47.6000000000 -16.7726128871 -0.1752956198 1 1 1.0
324 4 47.9900000000 -16.7151560749 0.1949239180 1 1 1.0
325 2 48.3800000000 -16.8791044386 0.5317988584 1 1 1.0
326 3 48.7700000000 -17.2059024350 0.7150114699 1 1 1.0
327 2 49.1600000000 -17.5788313982 0.6791258203 1 1 1.0
328 3 49.5500000000 -17.8646965979 0.4369587724 1 1 1.0
329 1 49.9400000000 -17.9613988625 0.0750023338 1 1 1.0
330 3 50.3300000000 -17.8344001611 -0.2774676952 1 1 1.0
331 2 50.7200000000 -17.5290591530 -0.4945636653 1 1 1.0
332 2 51.1100000000 -17.1544309593 -0.4987479164 1 1 1.0
333 4 51.5000000000 -16.8443172049 -0.2885260079 1 1 1.0
334 3 51.8900000000 -16.7094776376 0.0610195293 1 1 1.0
335 4 52.2800000000 -16.7980713482 0.4250455529 1 1 1.0
336 2 52.6700000000 -17.0784563444 0.6735370928 1 1 1.0
337 2 53.0600000000 -17.4504907555 0.7177432957 1 1 1.0
338 3 53.4500000000 -17.7812993481 0.5418755428 1 1 1.0
339 4 53.8400000000 -17.9527310381 0.2087464880 1 1 1.0
340 4 53.8400000000 -19.5127310381 0.2087464880 1 1 1.0
341 1 53.4500000000 -19.5619045274 -0.1626640118 1 1 1.0
342 1 53.0600000000 -19.8141204688 -0.4397035584 1 1 1.0
343 4 52.6700000000 -20.1792978076 -0.5234251367 1 1 1.0
344 2 52.2800000000 -20.5270103716 -0.3839268777 1 1 1.0
345 3 51.8900000000 -20.7330696805 -0.0710317632 1 1 1.0
346 4 51.5000000000 -20.7238799110 0.3035070727 1 1 1.0
347 1 51.1100000000 -20.5027232668 0.6059199200 1 1 1.0
348 3 50.7200000000 -20.1485877123 0.7281974749 1 1 1.0
349 3 50.3300000000 -19.7879557530 0.6266672756 1 1 1.0
350 4 49.9400000000 -19.5496301404 0.3375916906 1 1 1.0
351 3 49.5500000000 -19.5187308809 -0.0357834923 1 1 1.0
352 4 49.1600000000 -19.7062939062 -0.3601041716 1 1 1.0
353 3 48.7700000000 -20.0453294968 -0.5195364763 1 1 1.0
354 1 48.3800000000 -20.4147482268 -0.4571378115 1 1 1.0
355 3 47.9900000000 -20.6826090753 -0.1951943876 1 1 1.0
356 3 47.6000000000 -20.7532432769 0.1727384881 1 1 1.0
357 2 47.2100000000 -20.6014232296 0.5152504801 1 1 1.0
358 2 46.8200000000 -20.2813727463 0.7100105364 1 1 1.0
359 3 46.4300000000 -19.9074005612 0.6874584572 1 1 1.0
360 2 46.0400000000 -19.6130740004 0.4556489081 1 1 1.0
361 2 45.6500000000 -19.5035142820 0.0973746283 1 1 1.0
362 4 45.2600000000 -19.6178515851 -0.2594036958 1 1 1.0
363 2 44.8700000000 -19.9152493759 -0.4872596711 1 1 1.0
364 2 44.4800000000 -20.2894895205 -0.5048126106 1 1 1.0
365 4 44.0900000000 -20.6069089888 -0.3057933338 1 1 1.0
366 1 43.7000000000 -20.7541387358 0.0387167430 1 1 1.0
367 1 43.3100000000 -20.6785944132 0.4056729350 1 1 1.0
368 1 42.9200000000 -20.4072573142 0.6640137373 1 1 1.0
369 2 42.5300000000 -20.0370377764 0.7214705495 1 1 1.0
370 1 42.1400000000 -19.7001628360 0.5575221858 1 1 1.0
371 2 41.7500000000 -19.5169502245 0.2307241894 1 1 1.0
372 2 41.3600000000 -19.5528358742 -0.1422047738 1 1 1.0
373 3 40.9700000000 -19.7950029220 -0.4280699735 1 1 1.0
374 3 40.5800000000 -20.1569593607 -0.5247722381 1 1 1.0
375 1 40.1900000000 -20.5094293896 -0.3977735366 1 1 1.0
376 3 39.8000000000 -20.7265253597 -0.0924325285 1 1 1.0
377 1 39.4100000000 -20.7307096108 0.2821956651 1 1 1.0
378 2 39.0200000000 -20.5204877023 0.5923094195 1 1 1.0
379 1 38.6300000000 -20.1709421652 0.7271489868 1 1 1.0
380 2 38.2400000000 -19.8069161415 0.6385552762 1 1 1.0
381 2 37.8500000000 -19.5584246016 0.3581702800 1 1 1.0
382 2 37.4600000000 -19.5142183987 -0.0138641311 1 1 1.0
383 4 37.0700000000 -19.6900861516 -0.3446727237 1 1 1.0
384 3 36.6800000000 -20.0232152064 -0.5161044137 1 1 1.0
385 1 36.2900000000 -20.3946257063 -0.4669309243 1 1 1.0
386 3 35.9000000000 -20.6716652528 -0.2147149830 1 1 1.0
387 2 35.5100000000 -20.7553868312 0.1504623558 1 1 1.0
388 4 35.1200000000 -20.6158885721 0.4981749199 1 1 1.0
389 2 34.7300000000 -20.3029934576 0.7042342288 1 1 1.0
390 2 34.3400000000 -19.9284546218 0.6950444592 1 1 1.0
391 3 33.9500000000 -19.6260417745 0.4738878151 1 1 1.0
392 4 33.5600000000 -19.5037642195 0.1197522605 1 1 1.0
393 3 33.1700000000 -19.6052944188 -0.2408796988 1 1 1.0
394 3 32.7800000000 -19.8943700038 -0.4792053113 1 1 1.0
395 2 32.3900000000 -20.2677451867 -0.5101045708 1 1 1.0
396 1 32.0000000000 -20.5920658660 -0.3225415456 1 1 1.0
397 1 31.6100000000 -20.7514981707 0.0164940450 1 1 1.0
398 4 31.2200000000 -20.6890995059 0.3859127750 1 1 1.0
399 1 30.8300000000 -20.4271560821 0.6537736236 1 1 1.0
400 3 30.4400000000 -20.0592232064 0.7244078252 1 1 1.0
401 2 30.0500000000 -19.7167112143 0.5725877779 1 1 1.0
402 4 29.6600000000 -19.5219511580 0.2525372945 1 1 1.0
403 1 29.2700000000 -19.5445032372 -0.1214348905 1 1 1.0
404 2 28.8800000000 -19.7763127863 -0.4157614513 1 1 1.0
405 4 28.4900000000 -20.1345870661 -0.5253211697 1 1 1.0
406 2 28.1000000000 -20.4913653902 -0.4109838666 1 1 1.0
407 4 27.7100000000 -20.7192213655 -0.1135860758 1 1 1.0
408 4 27.3200000000 -20.7367743051 0.2606540687 1 1 1.0
409 1 26.9300000000 -20.5377550282 0.5780735371 1 1 1.0
410 4 26.5400000000 -20.1932449514 0.7253032841 1 1 1.0
411 4 26.1500000000 -19.8262887595 0.6497589615 1 1 1.0
412 4 25.7600000000 -19.5679479571 0.3784218625 1 1 1.0
413 2 25.3700000000 -19.5104911449 0.0082023247 1 1 1.0
414 1 24.9800000000 -19.6744395087 -0.3286726157 1 1 1.0
415 3 24.5900000000 -20.0012375050 -0.5118852272 1 1 1.0
416 1 24.2000000000 -20.3741664682 -0.4759995776 1 1 1.0
417 3 23.8100000000 -20.6600316679 -0.2338325297 1 1 1.0
418 2 23.4200000000 -20.7567339325 0.1281239089 1 1 1.0
419 3 23.0300000000 -20.6297352311 0.4805939379 1 1 1.0
420 2 22.6400000000 -20.3243942230 0.6976899080 1 1 1.0
421 4 22.2500000000 -19.9497660293 0.7018741591 1 1 1.0
422 3 21.8600000000 -19.6396522749 0.4916522506 1 1 1.0
423 1 21.4700000000 -19.5048127076 0.1421067134 1 1 1.0
424 4 21.0800000000 -19.5934064182 -0.2219193102 1 1 1.0
425 3 20.6900000000 -19.8737914144 -0.4704108501 1 1 1.0
426 4 20.3000000000 -20.2458258255 -0.5146170530 1 1 1.0
427 1 19.9100000000 -20.5766344181 -0.3387493001 1 1 1.0
428 2 19.5200000000 -20.7480661081 -0.0056202453 1 1 1.0
429 4 19.5200000000 -22.3080661081 -0.0056202453 1 1 1.0
430 1 19.9100000000 -22.3572395974 0.3657902545 1 1 1.0
431 4 20.3000000000 -22.6094555388 0.6428298011 1 1 1.0
432 2 20.6900000000 -22.9746328776 0.7265513794 1 1 1.0
433 2 21.0800000000 -23.3223454416 0.5870531204 1 1 1.0
434 2 21.4700000000 -23.5284047505 0.2741580059 1 1 1.0
435 2 21.8600000000 -23.5192149810 -0.1003808300 1 1 1.0
436 3 22.2500000000 -23.2980583368 -0.4027936773 1 1 1.0
437 1 22.6400000000 -22.9439227823 -0.5250712322 1 1 1.0
438 2 23.0300000000 -22.5832908230 -0.4235410329 1 1 1.0
439 2 23.4200000000 -22.3449652104 -0.1344654479 1 1 1.0
440 4 23.8100000000 -22.3140659509 0.2389097350 1 1 1.0
441 2 24.2000000000 -22.5016289762 0.5632304143 1 1 1.0
442 4 24.5900000000 -22.8406645668 0.7226627190 1 1 1.0
443 2 24.9800000000 -23.2100832968 0.6602640542 1 1 1.0
444 2 25.3700000000 -23.4779441453 0.3983206303 1 1 1.0
445 4 25.7600000000 -23.5485783469 0.0303877546 1 1 1.0
446 3 26.1500000000 -23.3967582997 -0.3121242374 1 1 1.0
447 3 26.5400000000 -23.0767078163 -0.5068842937 1 1 1.0
448 1 26.9300000000 -22.7027356312 -0.4843322145 1 1 1.0
449 2 27.3200000000 -22.4084090704 -0.2525226654 1 1 1.0
450 3 27.7100000000 -22.2988493520 0.1057516143 1 1 1.0
451 2 28.1000000000 -22.4131866552 0.4625299385 1 1 1.0
452 1 28.4900000000 -22.7105844460 0.6903859138 1 1 1.0
453 4 28.8800000000 -23.0848245905 0.7079388533 1 1 1.0
454 4 29.2700000000 -23.4022440589 0.5089195765 1 1 1.0
455 1 29.6600000000 -23.5494738058 0.1644094997 1 1 1.0
456 1 30.0500000000 -23.4739294832 -0.2025466923 1 1 1.0
457 2 30.4400000000 -23.2025923842 -0.4608874946 1 1 1.0
458 4 30.8300000000 -22.8323728464 -0.5183443068 1 1 1.0
459 2 31.2200000000 -22.4954979060 -0.3543959431 1 1 1.0
460 1 31.6100000000 -22.3122852945 -0.0275979467 1 1 1.0
461 3 32.0000000000 -22.3481709442 0.3453310165 1 1 1.0
462 1 32.3900000000 -22.5903379920 0.6311962162 1 1 1.0
463 1 32.7800000000 -22.9522944307 0.7278984808 1 1 1.0
464 1 33.1700000000 -23.3047644596 0.6008997793 1 1 1.0
465 3 33.5600000000 -23.5218604297 0.2955587712 1 1 1.0
466 2 33.9500000000 -23.5260446808 -0.0790694224 1 1 1.0
467 4 34.3400000000 -23.3158227723 -0.3891831768 1 1 1.0
468 2 34.7300000000 -22.9662772352 -0.5240227441 1 1 1.0
469 2 35.1200000000 -22.6022512115 -0.4354290335 1 1 1.0
470 3 35.5100000000 -22.3537596717 -0.1550440373 1 1 1.0
471 2 35.9000000000 -22.3095534687 0.2169903738 1 1 1.0
472 4 36.2900000000 -22.4854212216 0.5477989664 1 1 1.0
473 3 36.6800000000 -22.8185502764 0.7192306564 1 1 1.0
474 3 37.0700000000 -23.1899607763 0.6700571670 1 1 1.0
475 2 37.4600000000 -23.4670003229 0.4178412257 1 1 1.0
476 2 37.8500000000 -23.5507219012 0.0526638869 1 1 1.0
477 3 38.2400000000 -23.4112236421 -0.2950486772 1 1 1.0
478 2 38.6300000000 -23.0983285277 -0.5011079861 1 1 1.0
479 1 39.0200000000 -22.7237896918 -0.4919182165 1 1 1.0
480 4 39.4100000000 -22.4213768445 -0.2707615724 1 1 1.0
481 4 39.8000000000 -22.2990992895 0.0833739822 1 1 1.0
482 3 40.1900000000 -22.4006294888 0.4440059415 1 1 1.0
483 2 40.5800000000 -22.6897050738 0.6823315540 1 1 1.0
484 1 40.9700000000 -23.0630802568 0.7132308135 1 1 1.0
485 1 41.3600000000 -23.3874009361 0.5256677883 1 1 1.0
486 4 41.7500000000 -23.5468332407 0.1866321977 1 1 1.0
487 2 42.1400000000 -23.4844345759 -0.1827865323 1 1 1.0
488 3 42.5300000000 -23.2224911521 -0.4506473809 1 1 1.0
489 1 42.9200000000 -22.8545582764 -0.5212815825 1 1 1.0
490 1 43.3100000000 -22.5120462843 -0.3694615352 1 1 1.0
491 4 43.7000000000 -22.3172862280 -0.0494110518 1 1 1.0
492 2 44.0900000000 -22.3398383072 0.3245611332 1 1 1.0
493 1 44.4800000000 -22.5716478563 0.6188876940 1 1 1.0
494 3 44.8700000000 -22.9299221361 0.7284474124 1 1 1.0
495 1 45.2600000000 -23.2867004602 0.6141101093 1 1 1.0
496 4 45.6500000000 -23.5145564355 0.3167123185 1 1 1.0
497 1 46.0400000000 -23.5321093751 -0.0575278260 1 1 1.0
498 2 46.4300000000 -23.3330900983 -0.3749472944 1 1 1.0
499 1 46.8200000000 -22.9885800214 -0.5221770414 1 1 1.0
500 2 47.2100000000 -22.6216238295 -0.4466327188 1 1 1.0
501 1 47.6000000000 -22.3632830272 -0.1752956198 1 1 1.0
502 2 47.9900000000 -22.3058262149 0.1949239180 1 1 1.0
503 2 48.3800000000 -22.4697745787 0.5317988584 1 1 1.0
504 1 48.7700000000 -22.7965725750 0.7150114699 1 1 1.0
505 4 49.1600000000 -23.1695015383 0.6791258203 1 1 1.0
506 3 49.5500000000 -23.4553667379 0.4369587724 1 1 1.0
507 3 49.9400000000 -23.5520690025 0.0750023338 1 1 1.0
508 1 50.3300000000 -23.4250703011 -0.2774676952 1 1 1.0
509 2 50.7200000000 -23.1197292930 -0.4945636653 1 1 1.0
510 3 51.1100000000 -22.7451010993 -0.4987479164 1 1 1.0
511 1 51.5000000000 -22.4349873449 -0.2885260079 1 1 1.0
512 4 51.8900000000 -22.3001477777 0.0610195293 1 1 1.0
513 2 52.2800000000 -22.3887414882 0.4250455529 1 1 1.0
514 4 52.6700000000 -22.6691264844 0.6735370928 1 1 1.0
515 1 53.0600000000 -23.0411608955 0.7177432957 1 1 1.0
516 4 53.4500000000 -23.3719694881 0.5418755428 1 1 1.0
517 1 53.8400000000 -23.5434011781 0.2087464880 1 1 1.0
518 1 53.8400000000 -25.1034011781 0.2087464880 1 1 1.0
519 4 53.4500000000 -25.1525746674 -0.1626640118 1 1 1.0
520 4 53.0600000000 -25.4047906088 -0.4397035584 1 1 1.0
521 4 52.6700000000 -25.7699679476 -0.5234251367 1 1 1.0
522 3 52.2800000000 -26.1176805116 -0.3839268777 1 1 1.0
523 1 51.8900000000 -26.3237398205 -0.0710317632 1 1 1.0
524 3 51.5000000000 -26.3145500510 0.3035070727 1 1 1.0
525 4 51.1100000000 -26.0933934069 0.6059199200 1 1 1.0
526 2 50.7200000000 -25.7392578523 0.7281974749 1 1 1.0
527 3 50.3300000000 -25.3786258930 0.6266672756 1 1 1.0
528 1 49.9400000000 -25.1403002804 0.3375916906 1 1 1.0
529 4 49.5500000000 -25.1094010210 -0.0357834923 1 1 1.0
530 4 49.1600000000 -25.2969640462 -0.3601041716 1 1 1.0
531 1 48.7700000000 -25.6359996368 -0.5195364763 1 1 1.0