# LAMMPS data file
4947 atoms
4947 ellipsoids
4946 bonds

4 atom types
1 bond types

0.0 50.0 xlo xhi
0.0 50.0 ylo yhi
0.0 50.0 zlo zhi

Masses

1 3.1575
2 3.1575
3 3.1575
4 3.1575

Atoms

1 2 0.0000000000 0.0000000000 0.0000000000 1 1 1.0
2 2 0.3900000000 -0.0490820563 0.3713241129 1 1 1.0
3 3 0.7800000000 -0.3011054124 0.6484069039 1 1 1.0
4 1 1.1700000000 -0.6661285613 0.7323637133 1 1 1.0
5 2 1.5600000000 -1.0138828937 0.5932322311 1 1 1.0
6 4 1.9500000000 -1.2202626554 0.2806653758 1 1 1.0
7 3 2.3400000000 -1.2116155188 -0.0937887229 1 1 1.0
8 4 2.7300000000 -0.9910274538 -0.3964957606 1 1 1.0
9 4 3.1200000000 -0.6372214141 -0.5194263562 1 1 1.0
10 3 3.5100000000 -0.2764628732 -0.4187093258 1 1 1.0
11 1 3.9000000000 -0.0374984969 -0.1302883281 1 1 1.0
12 1 4.2900000000 -0.0056093340 0.2429056247 1 1 1.0
13 2 4.6800000000 -0.1921759146 0.5676879458 1 1 1.0
14 2 5.0700000000 -0.5306167928 0.7281510787 1 1 1.0
15 1 5.4600000000 -0.9001499782 0.6670293152 1 1 1.0
16 1 5.8500000000 -1.1688973302 0.4061356475 1 1 1.0
17 2 6.2400000000 -1.2409489213 0.0385771987 1 1 1.0
18 4 6.6300000000 -1.0905911478 -0.3044726301 1 1 1.0
19 3 7.0200000000 -0.7714833409 -0.5005870168 1 1 1.0
20 1 7.4100000000 -0.3975079498 -0.4797771170 1 1 1.0
21 1 7.8000000000 -0.1021284390 -0.2494695190 1 1 1.0
22 2 8.1900000000 0.0092408412 0.1081441391 1 1 1.0
23 3 8.5800000000 -0.1031453178 0.4654395300 1 1 1.0
24 3 8.9700000000 -0.3991788060 0.6949059086 1 1 1.0
25 4 9.3600000000 -0.7732118833 0.7146518495 1 1 1.0
26 3 9.7500000000 -1.0917604982 0.5176304673 1 1 1.0
27 2 10.1400000000 -1.2411417646 0.1741542930 1 1 1.0
28 2 10.5300000000 -1.1680448450 -0.1931976982 1 1 1.0
29 4 10.9200000000 -0.8985563974 -0.4533257852 1 1 1.0
30 2 11.3100000000 -0.5288508298 -0.5133960637 1 1 1.0
31 2 11.7000000000 -0.1908678021 -0.3519707929 1 1 1.0
32 4 12.0900000000 -0.0052259082 -0.0266590466 1 1 1.0
33 1 12.4800000000 -0.0381765938 0.3464426787 1 1 1.0
34 4 12.8700000000 -0.2779604952 0.6341827102 1 1 1.0
35 2 13.2600000000 -0.6390040934 0.7338730572 1 1 1.0
36 3 13.6500000000 -0.9924589919 0.6099364614 1 1 1.0
37 3 14.0400000000 -1.2121850318 0.3066031259 1 1 1.0
38 2 14.4300000000 -1.2197668968 -0.0678740569 1 1 1.0
39 3 14.8200000000 -1.0124987887 -0.3798525440 1 1 1.0
40 1 15.2100000000 -0.6643500660 -0.5179941814 1 1 1.0
41 1 15.6000000000 -0.2995672322 -0.4329993040 1 1 1.0
42 2 15.9900000000 -0.0483331333 -0.1552006851 1 1 1.0
43 1 16.3800000000 -0.0003076080 0.2162615525 1 1 1.0
44 2 16.7700000000 -0.1726298938 0.5488208328 1 1 1.0
45 1 17.1600000000 -0.5038020155 0.7237941761 1 1 1.0
46 3 17.5500000000 -0.8756360395 0.6787375042 1 1 1.0
47 2 17.9400000000 -1.1554327073 0.4297305370 1 1 1.0
48 4 18.3300000000 -1.2433388374 0.0656382995 1 1 1.0
49 3 18.7200000000 -1.1079826952 -0.2836028204 1 1 1.0
50 1 19.1100000000 -0.7976698648 -0.4933564672 1 1 1.0
51 2 19.5000000000 -0.4231440647 -0.4887662491 1 1 1.0
52 2 19.8900000000 -0.1180651880 -0.2714703125 1 1 1.0
53 1 20.2800000000 0.0086909279 0.0809832762 1 1 1.0
54 4 20.6700000000 -0.0881121437 0.4428117029 1 1 1.0
55 2 21.0600000000 -0.3739275486 0.6848864835 1 1 1.0
56 3 21.4500000000 -0.7467541523 0.7208165354 1 1 1.0
57 1 21.8400000000 -1.0735384669 0.5377792255 1 1 1.0
58 2 22.2300000000 -1.2376584691 0.2010964817 1 1 1.0
59 1 22.6200000000 -1.1805433956 -0.1690771444 1 1 1.0
60 1 23.0100000000 -0.9225763405 -0.4406349533 1 1 1.0
61 2 23.4000000000 -0.5558199842 -0.5166640281 1 1 1.0
62 4 23.7900000000 -0.2111614790 -0.3700312901 1 1 1.0
63 2 24.1800000000 -0.0116017476 -0.0530666885 1 1 1.0
64 1 24.5700000000 -0.0283592010 0.3211121896 1 1 1.0
65 3 24.9600000000 -0.2554534784 0.6189692598 1 1 1.0
66 3 25.3500000000 -0.6118397042 0.7342059861 1 1 1.0
67 4 25.7400000000 -0.9703315942 0.6256969548 1 1 1.0
68 4 26.1300000000 -1.2029913996 0.3321666156 1 1 1.0
69 3 26.5200000000 -1.2267880321 -0.0416306093 1 1 1.0
70 2 26.9100000000 -1.0332290051 -0.3622948389 1 1 1.0
71 1 27.3000000000 -0.6913912123 -0.5153881716 1 1 1.0
72 1 27.6900000000 -0.3232689272 -0.4462750161 1 1 1.0
73 3 28.0800000000 -0.0602367714 -0.1796203141 1 1 1.0
74 4 28.4700000000 0.0038349532 0.1894128269 1 1 1.0
75 4 28.8600000000 -0.1539195207 0.5291247211 1 1 1.0
76 1 29.2500000000 -0.4772011448 0.7182797807 1 1 1.0
77 3 29.6400000000 -0.8506379279 0.6893727896 1 1 1.0
78 1 30.0300000000 -1.1409586225 0.4527200074 1 1 1.0
79 3 30.4200000000 -1.2445542570 0.0927775264 1 1 1.0
80 2 30.8100000000 -1.1244538631 -0.2619992209 1 1 1.0
81 4 31.2000000000 -0.8235185890 -0.4849983373 1 1 1.0
82 2 31.5900000000 -0.4491455129 -0.4966364187 1 1 1.0
83 1 31.9800000000 -0.1349400241 -0.2927600938 1 1 1.0
84 1 32.3700000000 0.0069649560 0.0538717306 1 1 1.0
85 1 32.7600000000 -0.0740732905 0.4195538982 1 1 1.0
86 4 33.1500000000 -0.3491340235 0.6737826106 1 1 1.0
87 1 33.5400000000 -0.7200542107 0.7258293186 1 1 1.0
88 3 33.9300000000 -1.0544607216 0.5571197144 1 1 1.0
89 3 34.3200000000 -1.2330113413 0.2278624878 1 1 1.0
90 2 34.7100000000 -1.1919853414 -0.1444378109 1 1 1.0
91 4 35.1000000000 -0.9460239851 -0.4269155202 1 1 1.0
92 3 35.4900000000 -0.5829053869 -0.5187606547 1 1 1.0
93 4 35.8800000000 -0.2322184645 -0.3871957371 1 1 1.0
94 3 36.2700000000 -0.0191155480 -0.0791733482 1 1 1.0
95 1 36.6600000000 -0.0196483088 0.2953802010 1 1 1.0
96 2 37.0500000000 -0.2336266165 0.6027951143 1 1 1.0
97 3 37.4400000000 -0.5846863921 0.7333618751 1 1 1.0
98 2 37.8300000000 -0.9475422425 0.6404841225 1 1 1.0
99 1 38.2200000000 -1.1926990189 0.3573078522 1 1 1.0
100 3 38.6100000000 -1.2326657432 -0.0151076496 1 1 1.0
101 3 39.0000000000 -1.0531791842 -0.3438556081 1 1 1.0
102 2 39.3900000000 -0.7182940861 -0.5116132193 1 1 1.0
103 1 39.7800000000 -0.3475234608 -0.4585115385 1 1 1.0
104 1 40.1700000000 -0.0731870636 -0.2035013696 1 1 1.0
105 3 40.5600000000 0.0068105726 0.1624098536 1 1 1.0
106 1 40.9500000000 -0.1360799219 0.5086365880 1 1 1.0
107 3 41.3400000000 -0.4508641210 0.7116182450 1 1 1.0
108 4 41.7300000000 -0.8252025746 0.6989152046 1 1 1.0
109 4 42.1200000000 -1.1255022492 0.4750608983 1 1 1.0
110 3 42.5100000000 -1.2445928981 0.1199439282 1 1 1.0
111 2 42.9000000000 -1.1399737285 -0.2397023903 1 1 1.0
112 2 43.2900000000 -0.8489809854 -0.4755283187 1 1 1.0
113 2 43.6800000000 -0.4754634796 -0.5033728503 1 1 1.0
114 3 44.0700000000 -0.1527212666 -0.3132988935 1 1 1.0
115 1 44.4600000000 0.0040661660 0.0268604016 1 1 1.0
116 2 44.8500000000 -0.0610551146 0.3957097799 1 1 1.0
117 3 45.2400000000 -0.3248447779 0.6616151364 1 1 1.0
118 3 45.6300000000 -0.6931621847 0.7296807882 1 1 1.0
119 2 46.0200000000 -1.0345630786 0.5756156244 1 1 1.0
120 1 46.4100000000 -1.2272091057 0.2544020610 1 1 1.0
121 1 46.8000000000 -1.2023492015 -0.1193259554 1 1 1.0
122 3 47.1900000000 -0.9688553106 -0.4121932428 1 1 1.0
123 1 47.5800000000 -0.6100561878 -0.5196820073 1 1 1.0
124 3 47.9700000000 -0.2539992262 -0.4034319096 1 1 1.0
125 4 48.3600000000 -0.0277532032 -0.1049300132 1 1 1.0
126 3 48.7500000000 -0.0120602713 0.2692950219 1 1 1.0
127 2 49.1400000000 -0.2125208873 0.5856906390 1 1 1.0
128 3 49.5300000000 -0.5575951347 0.7313423087 1 1 1.0
129 2 49.9200000000 -0.9241337215 0.6542702033 1 1 1.0
130 3 50.3100000000 -1.1813272126 0.3819796358 1 1 1.0
131 1 50.7000000000 -1.2373889954 0.0116450282 1 1 1.0
132 3 51.0900000000 -1.0723118716 -0.3245694693 1 1 1.0
133 4 51.4800000000 -0.7450081799 -0.5066764116 1 1 1.0
134 3 51.8700000000 -0.3722852976 -0.4696858984 1 1 1.0
135 3 52.2600000000 -0.0871596968 -0.2267990176 1 1 1.0
136 4 52.6500000000 0.0086136637 0.1353033277 1 1 1.0
137 3 53.0400000000 -0.1191445895 0.4873948980 1 1 1.0
138 2 53.4300000000 -0.4248403891 0.7038220755 1 1 1.0
139 2 53.8200000000 -0.7993777319 0.7073468344 1 1 1.0
140 1 54.2100000000 -1.1090926053 0.4967112670 1 1 1.0
141 2 54.6000000000 -1.2434546884 0.1470865029 1 1 1.0
142 3 54.9900000000 -1.1545131546 -0.2167541884 1 1 1.0
143 4 55.3800000000 -0.8740092508 -0.4649641903 1 1 1.0
144 1 55.7700000000 -0.5020485555 -0.5089628968 1 1 1.0
145 3 56.1600000000 -0.1713755331 -0.3330481523 1 1 1.0
146 1 56.5500000000 0.0000000000 -0.0000000000 1 1 1.0
147 3 56.9400000000 -0.0490820563 0.3713241129 1 1 1.0
148 1 57.3300000000 -0.3011054124 0.6484069039 1 1 1.0
149 1 57.7200000000 -0.6661285613 0.7323637133 1 1 1.0
150 1 58.1100000000 -1.0138828937 0.5932322311 1 1 1.0
151 1 58.5000000000 -1.2202626554 0.2806653758 1 1 1.0
152 3 58.8900000000 -1.2116155188 -0.0937887229 1 1 1.0
153 1 59.2800000000 -0.9910274538 -0.3964957606 1 1 1.0
154 1 59.6700000000 -0.6372214141 -0.5194263562 1 1 1.0
155 3 60.0600000000 -0.2764628732 -0.4187093258 1 1 1.0
156 2 60.4500000000 -0.0374984969 -0.1302883281 1 1 1.0
157 4 60.8400000000 -0.0056093340 0.2429056247 1 1 1.0
158 2 61.2300000000 -0.1921759146 0.5676879458 1 1 1.0
159 3 61.6200000000 -0.5306167928 0.7281510787 1 1 1.0
160 1 62.0100000000 -0.9001499782 0.6670293152 1 1 1.0
161 4 62.4000000000 -1.1688973302 0.4061356475 1 1 1.0
162 4 62.7900000000 -1.2409489213 0.0385771987 1 1 1.0
163 3 63.1800000000 -1.0905911478 -0.3044726301 1 1 1.0
164 3 63.5700000000 -0.7714833409 -0.5005870168 1 1 1.0
165 2 63.9600000000 -0.3975079498 -0.4797771170 1 1 1.0
166 3 64.3500000000 -0.1021284390 -0.2494695190 1 1 1.0
167 3 64.7400000000 0.0092408412 0.1081441391 1 1 1.0
168 2 65.1300000000 -0.1031453178 0.4654395300 1 1 1.0
169 4 65.5200000000 -0.3991788060 0.6949059086 1 1 1.0
170 4 65.9100000000 -0.7732118833 0.7146518495 1 1 1.0
171 2 66.3000000000 -1.0917604982 0.5176304673 1 1 1.0
172 4 66.6900000000 -1.2411417646 0.1741542930 1 1 1.0
173 2 67.0800000000 -1.1680448450 -0.1931976982 1 1 1.0
174 4 67.4700000000 -0.8985563974 -0.4533257852 1 1 1.0
175 1 67.8600000000 -0.5288508298 -0.5133960637 1 1 1.0
176 4 68.2500000000 -0.1908678021 -0.3519707929 1 1 1.0
177 1 68.6400000000 -0.0052259082 -0.0266590466 1 1 1.0
178 4 69.0300000000 -0.0381765938 0.3464426787 1 1 1.0
179 3 69.4200000000 -0.2779604952 0.6341827102 1 1 1.0
180 3 69.8100000000 -0.6390040934 0.7338730572 1 1 1.0
181 1 70.2000000000 -0.9924589919 0.6099364614 1 1 1.0
182 2 70.5900000000 -1.2121850318 0.3066031259 1 1 1.0
183 2 70.9800000000 -1.2197668968 -0.0678740569 1 1 1.0
184 3 71.3700000000 -1.0124987887 -0.3798525440 1 1 1.0
185 4 71.7600000000 -0.6643500660 -0.5179941814 1 1 1.0
186 1 72.1500000000 -0.2995672322 -0.4329993040 1 1 1.0
187 3 72.5400000000 -0.0483331333 -0.1552006851 1 1 1.0
188 2 72.9300000000 -0.0003076080 0.2162615525 1 1 1.0
189 3 73.3200000000 -0.1726298938 0.5488208328 1 1 1.0
190 4 73.7100000000 -0.5038020155 0.7237941761 1 1 1.0
191 4 74.1000000000 -0.8756360395 0.6787375042 1 1 1.0
192 3 74.4900000000 -1.1554327073 0.4297305370 1 1 1.0
193 4 74.8800000000 -1.2433388374 0.0656382995 1 1 1.0
194 2 75.2700000000 -1.1079826952 -0.2836028204 1 1 1.0
195 4 75.6600000000 -0.7976698648 -0.4933564672 1 1 1.0
196 2 76.0500000000 -0.4231440647 -0.4887662491 1 1 1.0
197 4 76.4400000000 -0.1180651880 -0.2714703125 1 1 1.0
198 4 76.8300000000 0.0086909279 0.0809832762 1 1 1.0
199 2 77.2200000000 -0.0881121437 0.4428117029 1 1 1.0
200 3 77.6100000000 -0.3739275486 0.6848864835 1 1 1.0
201 3 78.0000000000 -0.7467541523 0.7208165354 1 1 1.0
202 3 78.3900000000 -1.0735384669 0.5377792255 1 1 1.0
203 4 78.7800000000 -1.2376584691 0.2010964817 1 1 1.0
204 4 79.1700000000 -1.1805433956 -0.1690771444 1 1 1.0
205 1 79.5600000000 -0.9225763405 -0.4406349533 1 1 1.0
206 2 79.9500000000 -0.5558199842 -0.5166640281 1 1 1.0
207 1 80.3400000000 -0.2111614790 -0.3700312901 1 1 1.0
208 3 80.7300000000 -0.0116017476 -0.0530666885 1 1 1.0
209 4 81.1200000000 -0.0283592010 0.3211121896 1 1 1.0
210 4 81.5100000000 -0.2554534784 0.6189692598 1 1 1.0
211 1 81.9000000000 -0.6118397042 0.7342059861 1 1 1.0
212 4 82.2900000000 -0.9703315942 0.6256969548 1 1 1.0
213 3 82.6800000000 -1.2029913996 0.3321666156 1 1 1.0
214 1 83.0700000000 -1.2267880321 -0.0416306093 1 1 1.0
215 2 83.4600000000 -1.0332290051 -0.3622948389 1 1 1.0
216 3 83.8500000000 -0.6913912123 -0.5153881716 1 1 1.0
217 2 84.2400000000 -0.3232689272 -0.4462750161 1 1 1.0
218 2 84.6300000000 -0.0602367714 -0.1796203141 1 1 1.0
219 1 85.0200000000 0.0038349532 0.1894128269 1 1 1.0
220 3 85.4100000000 -0.1539195207 0.5291247211 1 1 1.0
221 2 85.8000000000 -0.4772011448 0.7182797807 1 1 1.0
222 3 86.1900000000 -0.8506379279 0.6893727896 1 1 1.0
223 3 86.5800000000 -1.1409586225 0.4527200074 1 1 1.0
224 1 86.9700000000 -1.2445542570 0.0927775264 1 1 1.0
225 2 87.3600000000 -1.1244538631 -0.2619992209 1 1 1.0
226 4 87.7500000000 -0.8235185890 -0.4849983373 1 1 1.0
227 2 88.1400000000 -0.4491455129 -0.4966364187 1 1 1.0
228 4 88.5300000000 -0.1349400241 -0.2927600938 1 1 1.0
229 1 88.9200000000 0.0069649560 0.0538717306 1 1 1.0
230 1 89.3100000000 -0.0740732905 0.4195538982 1 1 1.0
231 1 89.7000000000 -0.3491340235 0.6737826106 1 1 1.0
232 3 90.0900000000 -0.7200542107 0.7258293186 1 1 1.0
233 1 90.4800000000 -1.0544607216 0.5571197144 1 1 1.0
234 4 90.8700000000 -1.2330113413 0.2278624878 1 1 1.0
235 3 91.2600000000 -1.1919853414 -0.1444378109 1 1 1.0
236 1 91.6500000000 -0.9460239851 -0.4269155202 1 1 1.0
237 3 92.0400000000 -0.5829053869 -0.5187606547 1 1 1.0
238 4 92.4300000000 -0.2322184645 -0.3871957371 1 1 1.0
239 3 92.8200000000 -0.0191155480 -0.0791733482 1 1 1.0
240 2 93.2100000000 -0.0196483088 0.2953802010 1 1 1.0
241 1 93.6000000000 -0.2336266165 0.6027951143 1 1 1.0
242 2 93.9900000000 -0.5846863921 0.7333618751 1 1 1.0
243 4 94.3800000000 -0.9475422425 0.6404841225 1 1 1.0
244 1 94.7700000000 -1.1926990189 0.3573078522 1 1 1.0
245 3 95.1600000000 -1.2326657432 -0.0151076496 1 1 1.0
246 2 95.5500000000 -1.0531791842 -0.3438556081 1 1 1.0
247 4 95.9400000000 -0.7182940861 -0.5116132193 1 1 1.0
248 2 96.3300000000 -0.3475234608 -0.4585115385 1 1 1.0
249 2 96.7200000000 -0.0731870636 -0.2035013696 1 1 1.0
250 4 97.1100000000 0.0068105726 0.1624098536 1 1 1.0
251 4 97.5000000000 -0.1360799219 0.5086365880 1 1 1.0
252 4 97.8900000000 -0.4508641210 0.7116182450 1 1 1.0
253 4 98.2800000000 -0.8252025746 0.6989152046 1 1 1.0
254 2 98.6700000000 -1.1255022492 0.4750608983 1 1 1.0
255 4 99.0600000000 -1.2445928981 0.1199439282 1 1 1.0
256 4 99.4500000000 -1.1399737285 -0.2397023903 1 1 1.0
257 1 99.8400000000 -0.8489809854 -0.4755283187 1 1 1.0
258 4 100.2300000000 -0.4754634796 -0.5033728503 1 1 1.0
259 2 100.6200000000 -0.1527212666 -0.3132988935 1 1 1.0
260 4 101.0100000000 0.0040661660 0.0268604016 1 1 1.0
261 1 101.4000000000 -0.0610551146 0.3957097799 1 1 1.0
262 1 101.7900000000 -0.3248447779 0.6616151364 1 1 1.0
263 1 102.1800000000 -0.6931621847 0.7296807882 1 1 1.0
264 3 102.5700000000 -1.0345630786 0.5756156244 1 1 1.0
265 3 102.9600000000 -1.2272091057 0.2544020610 1 1 1.0
266 4 103.3500000000 -1.2023492015 -0.1193259554 1 1 1.0
267 2 103.7400000000 -0.9688553106 -0.4121932428 1 1 1.0
268 4 104.1300000000 -0.6100561878 -0.5196820073 1 1 1.0
269 3 104.5200000000 -0.2539992262 -0.4034319096 1 1 1.0
270 4 104.9100000000 -0.0277532032 -0.1049300132 1 1 1.0
271 4 105.3000000000 -0.0120602713 0.2692950219 1 1 1.0
272 1 105.6900000000 -0.2125208873 0.5856906390 1 1 1.0
273 3 106.0800000000 -0.5575951347 0.7313423087 1 1 1.0
274 3 106.4700000000 -0.9241337215 0.6542702033 1 1 1.0
275 3 106.8600000000 -1.1813272126 0.3819796358 1 1 1.0
276 3 107.2500000000 -1.2373889954 0.0116450282 1 1 1.0
277 4 107.6400000000 -1.0723118716 -0.3245694693 1 1 1.0
278 4 108.0300000000 -0.7450081799 -0.5066764116 1 1 1.0
279 3 108.4200000000 -0.3722852976 -0.4696858984 1 1 1.0
280 2 108.8100000000 -0.0871596968 -0.2267990176 1 1 1.0
281 4 109.2000000000 0.0086136637 0.1353033277 1 1 1.0
282 3 109.5900000000 -0.1191445895 0.4873948980 1 1 1.0
283 4 109.9800000000 -0.4248403891 0.7038220755 1 1 1.0
284 1 110.3700000000 -0.7993777319 0.7073468344 1 1 1.0
285 4 110.7600000000 -1.1090926053 0.4967112670 1 1 1.0
286 2 111.1500000000 -1.2434546884 0.1470865029 1 1 1.0
287 3 111.5400000000 -1.1545131546 -0.2167541884 1 1 1.0
288 1 111.9300000000 -0.8740092508 -0.4649641903 1 1 1.0
289 3 112.3200000000 -0.5020485555 -0.5089628968 1 1 1.0
290 2 112.7100000000 -0.1713755331 -0.3330481523 1 1 1.0
291 4 113.1000000000 0.0000000000 -0.0000000000 1 1 1.0
292 3 113.1000000000 1.5600000000 -0.0000000000 1 1 1.0
293 1 112.7100000000 1.6090820563 0.3713241129 1 1 1.0
294 2 112.3200000000 1.8611054124 0.6484069039 1 1 1.0
295 3 111.9300000000 2.2261285613 0.7323637133 1 1 1.0
296 1 111.5400000000 2.5738828937 0.5932322311 1 1 1.0
297 4 111.1500000000 2.7802626554 0.2806653758 1 1 1.0
298 1 110.7600000000 2.7716155188 -0.0937887229 1 1 1.0
299 4 110.3700000000 2.5510274538 -0.3964957606 1 1 1.0
300 1 109.9800000000 2.1972214141 -0.5194263562 1 1 1.0
301 4 109.5900000000 1.8364628732 -0.4187093258 1 1 1.0
302 3 109.2000000000 1.5974984969 -0.1302883281 1 1 1.0
303 1 108.8100000000 1.5656093340 0.2429056247 1 1 1.0
304 1 108.4200000000 1.7521759146 0.5676879458 1 1 1.0
305 4 108.0300000000 2.0906167928 0.7281510787 1 1 1.0
306 1 107.6400000000 2.4601499782 0.6670293152 1 1 1.0
307 1 107.2500000000 2.7288973302 0.4061356475 1 1 1.0
308 2 106.8600000000 2.8009489213 0.0385771987 1 1 1.0
309 1 106.4700000000 2.6505911478 -0.3044726301 1 1 1.0
310 4 106.0800000000 2.3314833409 -0.5005870168 1 1 1.0
311 1 105.6900000000 1.9575079498 -0.4797771170 1 1 1.0
312 2 105.3000000000 1.6621284390 -0.2494695190 1 1 1.0
313 3 104.9100000000 1.5507591588 0.1081441391 1 1 1.0
314 1 104.5200000000 1.6631453178 0.4654395300 1 1 1.0
315 1 104.1300000000 1.9591788060 0.6949059086 1 1 1.0
316 2 103.7400000000 2.3332118833 0.7146518495 1 1 1.0
317 4 103.3500000000 2.6517604982 0.5176304673 1 1 1.0
318 2 102.9600000000 2.8011417646 0.1741542930 1 1 1.0
319 1 102.5700000000 2.7280448450 -0.1931976982 1 1 1.0
320 4 102.1800000000 2.4585563974 -0.4533257852 1 1 1.0
321 3 101.7900000000 2.0888508298 -0.5133960637 1 1 1.0
322 3 101.4000000000 1.7508678021 -0.3519707929 1 1 1.0
323 3 101.0100000000 1.5652259082 -0.0266590466 1 1 1.0
324 1 100.6200000000 1.5981765938 0.3464426787 1 1 1.0
325 3 100.2300000000 1.8379604952 0.6341827102 1 1 1.0
326 1 99.8400000000 2.1990040934 0.7338730572 1 1 1.0
327 4 99.4500000000 2.5524589919 0.6099364614 1 1 1.0
328 1 99.0600000000 2.7721850318 0.3066031259 1 1 1.0
329 2 98.6700000000 2.7797668968 -0.0678740569 1 1 1.0
330 1 98.2800000000 2.5724987887 -0.3798525440 1 1 1.0
331 1 97.8900000000 2.2243500660 -0.5179941814 1 1 1.0
332 3 97.5000000000 1.8595672322 -0.4329993040 1 1 1.0
333 1 97.1100000000 1.6083331333 -0.1552006851 1 1 1.0
334 2 96.7200000000 1.5603076080 0.2162615525 1 1 1.0
335 1 96.3300000000 1.7326298938 0.5488208328 1 1 1.0
336 1 95.9400000000 2.0638020155 0.7237941761 1 1 1.0
337 1 95.5500000000 2.4356360395 0.6787375042 1 1 1.0
338 4 95.1600000000 2.7154327073 0.4297305370 1 1 1.0
339 4 94.7700000000 2.8033388374 0.0656382995 1 1 1.0
340 1 94.3800000000 2.6679826952 -0.2836028204 1 1 1.0
341 1 93.9900000000 2.3576698648 -0.4933564672 1 1 1.0
342 4 93.6000000000 1.9831440647 -0.4887662491 1 1 1.0
343 3 93.2100000000 1.6780651880 -0.2714703125 1 1 1.0
344 4 92.8200000000 1.5513090721 0.0809832762 1 1 1.0
345 2 92.4300000000 1.6481121437 0.4428117029 1 1 1.0
346 3 92.0400000000 1.9339275486 0.6848864835 1 1 1.0
347 2 91.6500000000 2.3067541523 0.7208165354 1 1 1.0
348 4 91.2600000000 2.6335384669 0.5377792255 1 1 1.0
349 2 90.8700000000 2.7976584691 0.2010964817 1 1 1.0
350 4 90.4800000000 2.7405433956 -0.1690771444 1 1 1.0
351 1 90.0900000000 2.4825763405 -0.4406349533 1 1 1.0
352 2 89.7000000000 2.1158199842 -0.5166640281 1 1 1.0
353 2 89.3100000000 1.7711614790 -0.3700312901 1 1 1.0
354 2 88.9200000000 1.5716017476 -0.0530666885 1 1 1.0
355 4 88.5300000000 1.5883592010 0.3211121896 1 1 1.0
356 2 88.1400000000 1.8154534784 0.6189692598 1 1 1.0
357 3 87.7500000000 2.1718397042 0.7342059861 1 1 1.0
358 3 87.3600000000 2.5303315942 0.6256969548 1 1 1.0
359 3 86.9700000000 2.7629913996 0.3321666156 1 1 1.0
360 1 86.5800000000 2.7867880321 -0.0416306093 1 1 1.0
361 2 86.1900000000 2.5932290051 -0.3622948389 1 1 1.0
362 2 85.8000000000 2.2513912123 -0.5153881716 1 1 1.0
363 2 85.4100000000 1.8832689272 -0.4462750161 1 1 1.0
364 3 85.0200000000 1.6202367714 -0.1796203141 1 1 1.0
365 2 84.6300000000 1.5561650468 0.1894128269 1 1 1.0
366 1 84.2400000000 1.7139195207 0.5291247211 1 1 1.0
367 2 83.8500000000 2.0372011448 0.7182797807 1 1 1.0
368 4 83.4600000000 2.4106379279 0.6893727896 1 1 1.0
369 1 83.0700000000 2.7009586225 0.4527200074 1 1 1.0
370 3 82.6800000000 2.8045542570 0.0927775264 1 1 1.0
371 3 82.2900000000 2.6844538631 -0.2619992209 1 1 1.0
372 3 81.9000000000 2.3835185890 -0.4849983373 1 1 1.0
373 1 81.5100000000 2.0091455129 -0.4966364187 1 1 1.0
374 1 81.1200000000 1.6949400241 -0.2927600938 1 1 1.0
375 3 80.7300000000 1.5530350440 0.0538717306 1 1 1.0
376 3 80.3400000000 1.6340732905 0.4195538982 1 1 1.0
377 3 79.9500000000 1.9091340235 0.6737826106 1 1 1.0
378 3 79.5600000000 2.2800542107 0.7258293186 1 1 1.0
379 3 79.1700000000 2.6144607216 0.5571197144 1 1 1.0
380 3 78.7800000000 2.7930113413 0.2278624878 1 1 1.0
381 1 78.3900000000 2.7519853414 -0.1444378109 1 1 1.0
382 1 78.0000000000 2.5060239851 -0.4269155202 1 1 1.0
383 3 77.6100000000 2.1429053869 -0.5187606547 1 1 1.0
384 2 77.2200000000 1.7922184645 -0.3871957371 1 1 1.0
385 4 76.8300000000 1.5791155480 -0.0791733482 1 1 1.0
386 3 76.4400000000 1.5796483088 0.2953802010 1 1 1.0
387 3 76.0500000000 1.7936266165 0.6027951143 1 1 1.0
388 1 75.6600000000 2.1446863921 0.7333618751 1 1 1.0
389 2 75.2700000000 2.5075422425 0.6404841225 1 1 1.0
390 1 74.8800000000 2.7526990189 0.3573078522 1 1 1.0
391 1 74.4900000000 2.7926657432 -0.0151076496 1 1 1.0
392 1 74.1000000000 2.6131791842 -0.3438556081 1 1 1.0
393 2 73.7100000000 2.2782940861 -0.5116132193 1 1 1.0
394 1 73.3200000000 1.9075234608 -0.4585115385 1 1 1.0
395 2 72.9300000000 1.6331870636 -0.2035013696 1 1 1.0
396 4 72.5400000000 1.5531894274 0.1624098536 1 1 1.0
397 1 72.1500000000 1.6960799219 0.5086365880 1 1 1.0
398 1 71.7600000000 2.0108641210 0.7116182450 1 1 1.0
399 2 71.3700000000 2.3852025746 0.6989152046 1 1 1.0
400 1 70.9800000000 2.6855022492 0.4750608983 1 1 1.0
401 2 70.5900000000 2.8045928981 0.1199439282 1 1 1.0
402 2 70.2000000000 2.6999737285 -0.2397023903 1 1 1.0
403 2 69.8100000000 2.4089809854 -0.4755283187 1 1 1.0
404 3 69.4200000000 2.0354634796 -0.5033728503 1 1 1.0
405 1 69.0300000000 1.7127212666 -0.3132988935 1 1 1.0
406 4 68.6400000000 1.5559338340 0.0268604016 1 1 1.0
407 3 68.2500000000 1.6210551146 0.3957097799 1 1 1.0
408 3 67.8600000000 1.8848447779 0.6616151364 1 1 1.0
409 3 67.4700000000 2.2531621847 0.7296807882 1 1 1.0
410 1 67.0800000000 2.5945630786 0.5756156244 1 1 1.0
411 3 66.6900000000 2.7872091057 0.2544020610 1 1 1.0
412 3 66.3000000000 2.7623492015 -0.1193259554 1 1 1.0
413 1 65.9100000000 2.5288553106 -0.4121932428 1 1 1.0
414 1 65.5200000000 2.1700561878 -0.5196820073 1 1 1.0
415 4 65.1300000000 1.8139992262 -0.4034319096 1 1 1.0
416 1 64.7400000000 1.5877532032 -0.1049300132 1 1 1.0
417 1 64.3500000000 1.5720602713 0.2692950219 1 1 1.0
418 4 63.9600000000 1.7725208873 0.5856906390 1 1 1.0
419 2 63.5700000000 2.1175951347 0.7313423087 1 1 1.0
420 3 63.1800000000 2.4841337215 0.6542702033 1 1 1.0
421 3 62.7900000000 2.7413272126 0.3819796358 1 1 1.0
422 1 62.4000000000 2.7973889954 0.0116450282 1 1 1.0
423 3 62.0100000000 2.6323118716 -0.3245694693 1 1 1.0
424 1 61.6200000000 2.3050081799 -0.5066764116 1 1 1.0
425 4 61.2300000000 1.9322852976 -0.4696858984 1 1 1.0
426 1 60.8400000000 1.6471596968 -0.2267990176 1 1 1.0
427 3 60.4500000000 1.5513863363 0.1353033277 1 1 1.0
428 3 60.0600000000 1.6791445895 0.4873948980 1 1 1.0
429 1 59.6700000000 1.9848403891 0.7038220755 1 1 1.0
430 4 59.2800000000 2.3593777319 0.7073468344 1 1 1.0
431 2 58.8900000000 2.6690926053 0.4967112670 1 1 1.0
432 2 58.5000000000 2.8034546884 0.1470865029 1 1 1.0
433 2 58.1100000000 2.7145131546 -0.2167541884 1 1 1.0
434 4 57.7200000000 2.4340092508 -0.4649641903 1 1 1.0
435 3 57.3300000000 2.0620485555 -0.5089628968 1 1 1.0
436 3 56.9400000000 1.7313755331 -0.3330481523 1 1 1.0
437 3 56.5500000000 1.5600000000 -0.0000000000 1 1 1.0
438 4 56.1600000000 1.6090820563 0.3713241129 1 1 1.0
439 1 55.7700000000 1.8611054124 0.6484069039 1 1 1.0
440 2 55.3800000000 2.2261285613 0.7323637133 1 1 1.0
441 3 54.9900000000 2.5738828937 0.5932322311 1 1 1.0
442 3 54.6000000000 2.7802626554 0.2806653758 1 1 1.0
443 3 54.2100000000 2.7716155188 -0.0937887229 1 1 1.0
444 3 53.8200000000 2.5510274538 -0.3964957606 1 1 1.0
445 4 53.4300000000 2.1972214141 -0.5194263562 1 1 1.0
446 2 53.0400000000 1.8364628732 -0.4187093258 1 1 1.0
447 2 52.6500000000 1.5974984969 -0.1302883281 1 1 1.0
448 1 52.2600000000 1.5656093340 0.2429056247 1 1 1.0
449 2 51.8700000000 1.7521759146 0.5676879458 1 1 1.0
450 3 51.4800000000 2.0906167928 0.7281510787 1 1 1.0
451 4 51.0900000000 2.4601499782 0.6670293152 1 1 1.0
452 1 50.7000000000 2.7288973302 0.4061356475 1 1 1.0
453 2 50.3100000000 2.8009489213 0.0385771987 1 1 1.0
454 3 49.9200000000 2.6505911478 -0.3044726301 1 1 1.0
455 3 49.5300000000 2.3314833409 -0.5005870168 1 1 1.0
456 1 49.1400000000 1.9575079498 -0.4797771170 1 1 1.0
457 3 48.7500000000 1.6621284390 -0.2494695190 1 1 1.0
458 3 48.3600000000 1.5507591588 0.1081441391 1 1 1.0
459 4 47.9700000000 1.6631453178 0.4654395300 1 1 1.0
460 1 47.5800000000 1.9591788060 0.6949059086 1 1 1.0
461 1 47.1900000000 2.3332118833 0.7146518495 1 1 1.0
462 2 46.8000000000 2.6517604982 0.5176304673 1 1 1.0
463 2 46.4100000000 2.8011417646 0.1741542930 1 1 1.0
464 3 46.0200000000 2.7280448450 -0.1931976982 1 1 1.0
465 4 45.6300000000 2.4585563974 -0.4533257852 1 1 1.0
466 1 45.2400000000 2.0888508298 -0.5133960637 1 1 1.0
467 1 44.8500000000 1.7508678021 -0.3519707929 1 1 1.0
468 1 44.4600000000 1.5652259082 -0.0266590466 1 1 1.0
469 1 44.0700000000 1.5981765938 0.3464426787 1 1 1.0
470 1 43.6800000000 1.8379604952 0.6341827102 1 1 1.0
471 2 43.2900000000 2.1990040934 0.7338730572 1 1 1.0
472 2 42.9000000000 2.5524589919 0.6099364614 1 1 1.0
473 1 42.5100000000 2.7721850318 0.3066031259 1 1 1.0
474 1 42.1200000000 2.7797668968 -0.0678740569 1 1 1.0
475 4 41.7300000000 2.5724987887 -0.3798525440 1 1 1.0
476 1 41.3400000000 2.2243500660 -0.5179941814 1 1 1.0
477 2 40.9500000000 1.8595672322 -0.4329993040 1 1 1.0
478 1 40.5600000000 1.6083331333 -0.1552006851 1 1 1.0
479 1 40.1700000000 1.5603076080 0.2162615525 1 1 1.0
480 3 39.7800000000 1.7326298938 0.5488208328 1 1 1.0
481 1 39.3900000000 2.0638020155 0.7237941761 1 1 1.0
482 3 39.0000000000 2.4356360395 0.6787375042 1 1 1.0
483 1 38.6100000000 2.7154327073 0.4297305370 1 1 1.0
484 4 38.2200000000 2.8033388374 0.0656382995 1 1 1.0
485 4 37.8300000000 2.6679826952 -0.2836028204 1 1 1.0
486 2 37.4400000000 2.3576698648 -0.4933564672 1 1 1.0
487 3 37.0500000000 1.9831440647 -0.4887662491 1 1 1.0
488 2 36.6600000000 1.6780651880 -0.2714703125 1 1 1.0
489 3 36.2700000000 1.5513090721 0.0809832762 1 1 1.0
490 3 35.8800000000 1.6481121437 0.4428117029 1 1 1.0
491 4 35.4900000000 1.9339275486 0.6848864835 1 1 1.0
492 3 35.1000000000 2.3067541523 0.7208165354 1 1 1.0
493 4 34.7100000000 2.6335384669 0.5377792255 1 1 1.0
494 1 34.3200000000 2.7976584691 0.2010964817 1 1 1.0
495 3 33.9300000000 2.7405433956 -0.1690771444 1 1 1.0
496 4 33.5400000000 2.4825763405 -0.4406349533 1 1 1.0
497 2 33.1500000000 2.1158199842 -0.5166640281 1 1 1.0
498 3 32.7600000000 1.7711614790 -0.3700312901 1 1 1.0
499 1 32.3700000000 1.5716017476 -0.0530666885 1 1 1.0
500 2 31.9800000000 1.5883592010 0.3211121896 1 1 1.0
501 4 31.5900000000 1.8154534784 0.6189692598 1 1 1.0
502 1 31.2000000000 2.1718397042 0.7342059861 1 1 1.0
503 4 30.8100000000 2.5303315942 0.6256969548 1 1 1.0
504 1 30.4200000000 2.7629913996 0.3321666156 1 1 1.0
505 2 30.0300000000 2.7867880321 -0.0416306093 1 1 1.0
506 4 29.6400000000 2.5932290051 -0.3622948389 1 1 1.0
507 3 29.2500000000 2.2513912123 -0.5153881716 1 1 1.0
508 4 28.8600000000 1.8832689272 -0.4462750161 1 1 1.0
509 1 28.4700000000 1.6202367714 -0.1796203141 1 1 1.0
510 4 28.0800000000 1.5561650468 0.1894128269 1 1 1.0
511 4 27.6900000000 1.7139195207 0.5291247211 1 1 1.0
512 3 27.3000000000 2.0372011448 0.7182797807 1 1 1.0
513 3 26.9100000000 2.4106379279 0.6893727896 1 1 1.0
514 2 26.5200000000 2.7009586225 0.4527200074 1 1 1.0
515 2 26.1300000000 2.8045542570 0.0927775264 1 1 1.0
516 3 25.7400000000 2.6844538631 -0.2619992209 1 1 1.0
517 4 25.3500000000 2.3835185890 -0.4849983373 1 1 1.0
518 4 24.9600000000 2.0091455129 -0.4966364187 1 1 1.0
519 4 24.5700000000 1.6949400241 -0.2927600938 1 1 1.0
520 2 24.1800000000 1.5530350440 0.0538717306 1 1 1.0
521 1 23.7900000000 1.6340732905 0.4195538982 1 1 1.0
522 3 23.4000000000 1.9091340235 0.6737826106 1 1 1.0
523 1 23.0100000000 2.2800542107 0.7258293186 1 1 1.0
524 4 22.6200000000 2.6144607216 0.5571197144 1 1 1.0
525 4 22.2300000000 2.7930113413 0.2278624878 1 1 1.0
526 2 21.8400000000 2.7519853414 -0.1444378109 1 1 1.0
527 3 21.4500000000 2.5060239851 -0.4269155202 1 1 1.0
528 4 21.0600000000 2.1429053869 -0.5187606547 1 1 1.0
529 3 20.6700000000 1.7922184645 -0.3871957371 1 1 1.0
530 3 20.2800000000 1.5791155480 -0.0791733482 1 1 1.0
531 1 19.8900000000 1.5796483088 0.2953802010 1 1 1.0
532 2 19.5000000000 1.7936266165 0.6027951143 1 1 1.0
533 2 19.1100000000 2.1446863921 0.7333618751 1 1 1.0
534 2 18.7200000000 2.5075422425 0.6404841225 1 1 1.0
535 4 18.3300000000 2.7526990189 0.3573078522 1 1 1.0
536 4 17.9400000000 2.7926657432 -0.0151076496 1 1 1.0
537 4 17.5500000000 2.6131791842 -0.3438556081 1 1 1.0
538 1 17.1600000000 2.2782940861 -0.5116132193 1 1 1.0
539 3 16.7700000000 1.9075234608 -0.4585115385 1 1 1.0
540 4 16.3800000000 1.6331870636 -0.2035013696 1 1 1.0
541 3 15.9900000000 1.5531894274 0.1624098536 1 1 1.0
542 3 15.6000000000 1.6960799219 0.5086365880 1 1 1.0
543 2 15.2100000000 2.0108641210 0.7116182450 1 1 1.0