# LAMMPS data file
1561 atoms
1561 ellipsoids
1560 bonds

4 atom types
1 bond types

0.0 50.0 xlo xhi
0.0 50.0 ylo yhi
0.0 50.0 zlo zhi

Masses

1 3.1575
2 3.1575
3 3.1575
4 3.1575

Atoms

1 2 31.0000000000 0.0000000000 0.0000000000 1 1 1.0
2 4 31.3900000000 -0.0572089543 0.3788394106 1 1 1.0
3 2 31.7800000000 -0.3261681891 0.6517003522 1 1 1.0
4 3 32.1700000000 -0.7041444182 0.7143592194 1 1 1.0
5 3 32.5600000000 -1.0467635692 0.5428824546 1 1 1.0
6 4 32.9500000000 -1.2231567714 0.2027683537 1 1 1.0
7 2 33.3400000000 -1.1659478171 -0.1760710568 1 1 1.0
8 4 33.7300000000 -0.8969885823 -0.4489319985 1 1 1.0
9 2 34.1200000000 -0.5190123532 -0.5115908657 1 1 1.0
10 1 34.5100000000 -0.1763932023 -0.3401141009 1 1 1.0
11 1 34.9000000000 0.0000000000 0.0000000000 1 1 1.0
12 1 35.2900000000 -0.0572089543 0.3788394106 1 1 1.0
13 3 35.6800000000 -0.3261681891 0.6517003522 1 1 1.0
14 4 36.0700000000 -0.7041444182 0.7143592194 1 1 1.0
15 3 36.4600000000 -1.0467635692 0.5428824546 1 1 1.0
16 3 36.8500000000 -1.2231567714 0.2027683537 1 1 1.0
17 2 37.2400000000 -1.1659478171 -0.1760710568 1 1 1.0
18 3 37.6300000000 -0.8969885823 -0.4489319985 1 1 1.0
19 3 38.0200000000 -0.5190123532 -0.5115908657 1 1 1.0
20 4 38.4100000000 -0.1763932023 -0.3401141009 1 1 1.0
21 3 38.8000000000 0.0000000000 0.0000000000 1 1 1.0
22 2 39.1900000000 -0.0572089543 0.3788394106 1 1 1.0
23 4 39.5800000000 -0.3261681891 0.6517003522 1 1 1.0
24 2 39.9700000000 -0.7041444182 0.7143592194 1 1 1.0
25 3 40.3600000000 -1.0467635692 0.5428824546 1 1 1.0
26 1 40.7500000000 -1.2231567714 0.2027683537 1 1 1.0
27 2 41.1400000000 -1.1659478171 -0.1760710568 1 1 1.0
28 3 41.5300000000 -0.8969885823 -0.4489319985 1 1 1.0
29 4 41.9200000000 -0.5190123532 -0.5115908657 1 1 1.0
30 3 42.3100000000 -0.1763932023 -0.3401141009 1 1 1.0
31 2 42.7000000000 0.0000000000 0.0000000000 1 1 1.0
32 3 43.0900000000 -0.0572089543 0.3788394106 1 1 1.0
33 2 43.4800000000 -0.3261681891 0.6517003522 1 1 1.0
34 3 43.8700000000 -0.7041444182 0.7143592194 1 1 1.0
35 4 44.2600000000 -1.0467635692 0.5428824546 1 1 1.0
36 3 44.6500000000 -1.2231567714 0.2027683537 1 1 1.0
37 4 45.0400000000 -1.1659478171 -0.1760710568 1 1 1.0
38 4 45.4300000000 -0.8969885823 -0.4489319985 1 1 1.0
39 4 45.8200000000 -0.5190123532 -0.5115908657 1 1 1.0
40 4 46.2100000000 -0.1763932023 -0.3401141009 1 1 1.0
41 3 46.6000000000 0.0000000000 0.0000000000 1 1 1.0
42 3 46.9900000000 -0.0572089543 0.3788394106 1 1 1.0
43 2 47.3800000000 -0.3261681891 0.6517003522 1 1 1.0
44 3 47.7700000000 -0.7041444182 0.7143592194 1 1 1.0
45 4 48.1600000000 -1.0467635692 0.5428824546 1 1 1.0
46 2 48.5500000000 -1.2231567714 0.2027683537 1 1 1.0
47 1 48.9400000000 -1.1659478171 -0.1760710568 1 1 1.0
48 4 49.3300000000 -0.8969885823 -0.4489319985 1 1 1.0
49 4 49.7200000000 -0.5190123532 -0.5115908657 1 1 1.0
50 2 50.1100000000 -0.1763932023 -0.3401141009 1 1 1.0
51 4 50.5000000000 0.0000000000 0.0000000000 1 1 1.0
52 4 50.8900000000 -0.0572089543 0.3788394106 1 1 1.0
53 1 51.2800000000 -0.3261681891 0.6517003522 1 1 1.0
54 1 51.6700000000 -0.7041444182 0.7143592194 1 1 1.0
55 4 52.0600000000 -1.0467635692 0.5428824546 1 1 1.0
56 2 52.4500000000 -1.2231567714 0.2027683537 1 1 1.0
57 1 52.8400000000 -1.1659478171 -0.1760710568 1 1 1.0
58 2 53.2300000000 -0.8969885823 -0.4489319985 1 1 1.0
59 1 53.6200000000 -0.5190123532 -0.5115908657 1 1 1.0
60 2 54.0100000000 -0.1763932023 -0.3401141009 1 1 1.0
61 4 54.4000000000 0.0000000000 0.0000000000 1 1 1.0
62 4 54.4000000000 1.5600000000 0.0000000000 1 1 1.0
63 1 54.0100000000 1.6172089543 0.3788394106 1 1 1.0
64 4 53.6200000000 1.8861681891 0.6517003522 1 1 1.0
65 2 53.2300000000 2.2641444182 0.7143592194 1 1 1.0
66 3 52.8400000000 2.6067635692 0.5428824546 1 1 1.0
67 2 52.4500000000 2.7831567714 0.2027683537 1 1 1.0
68 2 52.0600000000 2.7259478171 -0.1760710568 1 1 1.0
69 2 51.6700000000 2.4569885823 -0.4489319985 1 1 1.0
70 2 51.2800000000 2.0790123532 -0.5115908657 1 1 1.0
71 1 50.8900000000 1.7363932023 -0.3401141009 1 1 1.0
72 1 50.5000000000 1.5600000000 0.0000000000 1 1 1.0
73 1 50.1100000000 1.6172089543 0.3788394106 1 1 1.0
74 4 49.7200000000 1.8861681891 0.6517003522 1 1 1.0
75 4 49.3300000000 2.2641444182 0.7143592194 1 1 1.0
76 1 48.9400000000 2.6067635692 0.5428824546 1 1 1.0
77 3 48.5500000000 2.7831567714 0.2027683537 1 1 1.0
78 4 48.1600000000 2.7259478171 -0.1760710568 1 1 1.0
79 3 47.7700000000 2.4569885823 -0.4489319985 1 1 1.0
80 2 47.3800000000 2.0790123532 -0.5115908657 1 1 1.0
81 1 46.9900000000 1.7363932023 -0.3401141009 1 1 1.0
82 2 46.6000000000 1.5600000000 0.0000000000 1 1 1.0
83 2 46.2100000000 1.6172089543 0.3788394106 1 1 1.0
84 1 45.8200000000 1.8861681891 0.6517003522 1 1 1.0
85 2 45.4300000000 2.2641444182 0.7143592194 1 1 1.0
86 4 45.0400000000 2.6067635692 0.5428824546 1 1 1.0
87 3 44.6500000000 2.7831567714 0.2027683537 1 1 1.0
88 1 44.2600000000 2.7259478171 -0.1760710568 1 1 1.0
89 2 43.8700000000 2.4569885823 -0.4489319985 1 1 1.0
90 3 43.4800000000 2.0790123532 -0.5115908657 1 1 1.0
91 1 43.0900000000 1.7363932023 -0.3401141009 1 1 1.0
92 3 42.7000000000 1.5600000000 0.0000000000 1 1 1.0
93 3 42.3100000000 1.6172089543 0.3788394106 1 1 1.0
94 2 41.9200000000 1.8861681891 0.6517003522 1 1 1.0
95 2 41.5300000000 2.2641444182 0.7143592194 1 1 1.0
96 2 41.1400000000 2.6067635692 0.5428824546 1 1 1.0
97 1 40.7500000000 2.7831567714 0.2027683537 1 1 1.0
98 1 40.3600000000 2.7259478171 -0.1760710568 1 1 1.0
99 4 39.9700000000 2.4569885823 -0.4489319985 1 1 1.0
100 4 39.5800000000 2.0790123532 -0.5115908657 1 1 1.0
101 2 39.1900000000 1.7363932023 -0.3401141009 1 1 1.0
102 4 38.8000000000 1.5600000000 0.0000000000 1 1 1.0
103 2 38.4100000000 1.6172089543 0.3788394106 1 1 1.0
104 3 38.0200000000 1.8861681891 0.6517003522 1 1 1.0
105 3 37.6300000000 2.2641444182 0.7143592194 1 1 1.0
106 4 37.2400000000 2.6067635692 0.5428824546 1 1 1.0
107 1 36.8500000000 2.7831567714 0.2027683537 1 1 1.0
108 1 36.4600000000 2.7259478171 -0.1760710568 1 1 1.0
109 4 36.0700000000 2.4569885823 -0.4489319985 1 1 1.0
110 3 35.6800000000 2.0790123532 -0.5115908657 1 1 1.0
111 2 35.2900000000 1.7363932023 -0.3401141009 1 1 1.0
112 3 34.9000000000 1.5600000000 0.0000000000 1 1 1.0
113 2 34.5100000000 1.6172089543 0.3788394106 1 1 1.0
114 3 34.1200000000 1.8861681891 0.6517003522 1 1 1.0
115 1 33.7300000000 2.2641444182 0.7143592194 1 1 1.0
116 3 33.3400000000 2.6067635692 0.5428824546 1 1 1.0
117 2 32.9500000000 2.7831567714 0.2027683537 1 1 1.0
118 1 32.5600000000 2.7259478171 -0.1760710568 1 1 1.0
119 2 32.1700000000 2.4569885823 -0.4489319985 1 1 1.0
120 1 31.7800000000 2.0790123532 -0.5115908657 1 1 1.0
121 4 31.3900000000 1.7363932023 -0.3401141009 1 1 1.0
122 4 31.0000000000 1.5600000000 0.0000000000 1 1 1.0
123 1 31.0000000000 -0.0000000000 0.0000000000 1 1 1.0
124 3 31.3900000000 -0.0572089543 0.3788394106 1 1 1.0
125 1 31.7800000000 -0.3261681891 0.6517003522 1 1 1.0
126 2 32.1700000000 -0.7041444182 0.7143592194 1 1 1.0
127 4 32.5600000000 -1.0467635692 0.5428824546 1 1 1.0
128 1 32.9500000000 -1.2231567714 0.2027683537 1 1 1.0
129 1 33.3400000000 -1.1659478171 -0.1760710568 1 1 1.0
130 3 33.7300000000 -0.8969885823 -0.4489319985 1 1 1.0
131 2 34.1200000000 -0.5190123532 -0.5115908657 1 1 1.0
132 4 34.5100000000 -0.1763932023 -0.3401141009 1 1 1.0
133 2 34.9000000000 -0.0000000000 0.0000000000 1 1 1.0
134 1 35.2900000000 -0.0572089543 0.3788394106 1 1 1.0
135 2 35.6800000000 -0.3261681891 0.6517003522 1 1 1.0
136 4 36.0700000000 -0.7041444182 0.7143592194 1 1 1.0
137 1 36.4600000000 -1.0467635692 0.5428824546 1 1 1.0
138 4 36.8500000000 -1.2231567714 0.2027683537 1 1 1.0
139 2 37.2400000000 -1.1659478171 -0.1760710568 1 1 1.0
140 2 37.6300000000 -0.8969885823 -0.4489319985 1 1 1.0
141 4 38.0200000000 -0.5190123532 -0.5115908657 1 1 1.0
142 4 38.4100000000 -0.1763932023 -0.3401141009 1 1 1.0
143 4 38.8000000000 -0.0000000000 0.0000000000 1 1 1.0
144 1 39.1900000000 -0.0572089543 0.3788394106 1 1 1.0
145 2 39.5800000000 -0.3261681891 0.6517003522 1 1 1.0
146 3 39.9700000000 -0.7041444182 0.7143592194 1 1 1.0
147 1 40.3600000000 -1.0467635692 0.5428824546 1 1 1.0
148 4 40.7500000000 -1.2231567714 0.2027683537 1 1 1.0
149 2 41.1400000000 -1.1659478171 -0.1760710568 1 1 1.0
150 1 41.5300000000 -0.8969885823 -0.4489319985 1 1 1.0
151 1 41.9200000000 -0.5190123532 -0.5115908657 1 1 1.0
152 1 42.3100000000 -0.1763932023 -0.3401141009 1 1 1.0
153 1 42.7000000000 -0.0000000000 0.0000000000 1 1 1.0
154 1 43.0900000000 -0.0572089543 0.3788394106 1 1 1.0
155 1 43.4800000000 -0.3261681891 0.6517003522 1 1 1.0
156 3 43.8700000000 -0.7041444182 0.7143592194 1 1 1.0
157 2 44.2600000000 -1.0467635692 0.5428824546 1 1 1.0
158 3 44.6500000000 -1.2231567714 0.2027683537 1 1 1.0
159 1 45.0400000000 -1.1659478171 -0.1760710568 1 1 1.0
160 3 45.4300000000 -0.8969885823 -0.4489319985 1 1 1.0
161 2 45.8200000000 -0.5190123532 -0.5115908657 1 1 1.0
162 2 46.2100000000 -0.1763932023 -0.3401141009 1 1 1.0
163 2 46.6000000000 -0.0000000000 0.0000000000 1 1 1.0
164 4 46.9900000000 -0.0572089543 0.3788394106 1 1 1.0
165 2 47.3800000000 -0.3261681891 0.6517003522 1 1 1.0
166 2 47.7700000000 -0.7041444182 0.7143592194 1 1 1.0
167 4 48.1600000000 -1.0467635692 0.5428824546 1 1 1.0
168 2 48.5500000000 -1.2231567714 0.2027683537 1 1 1.0
169 1 48.9400000000 -1.1659478171 -0.1760710568 1 1 1.0
170 3 49.3300000000 -0.8969885823 -0.4489319985 1 1 1.0
171 1 49.7200000000 -0.5190123532 -0.5115908657 1 1 1.0
172 2 50.1100000000 -0.1763932023 -0.3401141009 1 1 1.0
173 1 50.5000000000 -0.0000000000 0.0000000000 1 1 1.0
174 4 50.8900000000 -0.0572089543 0.3788394106 1 1 1.0
175 1 51.2800000000 -0.3261681891 0.6517003522 1 1 1.0
176 4 51.6700000000 -0.7041444182 0.7143592194 1 1 1.0
177 4 52.0600000000 -1.0467635692 0.5428824546 1 1 1.0
178 3 52.4500000000 -1.2231567714 0.2027683537 1 1 1.0
179 1 52.8400000000 -1.1659478171 -0.1760710568 1 1 1.0
180 4 53.2300000000 -0.8969885823 -0.4489319985 1 1 1.0
181 3 53.6200000000 -0.5190123532 -0.5115908657 1 1 1.0
182 2 54.0100000000 -0.1763932023 -0.3401141009 1 1 1.0
183 3 54.4000000000 -0.0000000000 0.0000000000 1 1 1.0
184 4 54.4000000000 1.5600000000 0.0000000000 1 1 1.0
185 2 54.0100000000 1.6068405862 0.3691929420 1 1 1.0
186 4 53.6200000000 1.8541283270 0.6473048659 1 1 1.0
187 2 53.2300000000 2.2153112642 0.7369951936 1 1 1.0
188 1 52.8400000000 2.5639735454 0.6068718574 1 1 1.0
189 4 52.4500000000 2.7780816112 0.3024786821 1 1 1.0
190 4 52.0600000000 2.7826965572 -0.0696451833 1 1 1.0
191 1 51.6700000000 2.5762031289 -0.3792545066 1 1 1.0
192 2 51.2800000000 2.2308750693 -0.5179844607 1 1 1.0
193 2 50.8900000000 1.8675789433 -0.4372788611 1 1 1.0
194 3 50.5000000000 1.6134702300 -0.1653850752 1 1 1.0
195 1 50.1100000000 1.5574882625 0.2025326986 1 1 1.0
196 3 49.7200000000 1.7192270122 0.5377013812 1 1 1.0
197 4 49.3300000000 2.0420770998 0.7228102409 1 1 1.0
198 2 48.9400000000 2.4130393640 0.6930702417 1 1 1.0
199 3 48.5500000000 2.7022751386 0.4588905337 1 1 1.0
200 4 48.1600000000 2.8085504416 0.1022351974 1 1 1.0
201 1 47.7700000000 2.6946683803 -0.2520645981 1 1 1.0
202 4 47.3800000000 2.4004882513 -0.4800021349 1 1 1.0
203 3 46.9900000000 2.0289745855 -0.5017981237 1 1 1.0
204 1 46.6000000000 1.7101590425 -0.3098238585 1 1 1.0
205 1 46.2100000000 1.5556286726 0.0287286983 1 1 1.0
206 4 45.8200000000 1.6194698857 0.3953644419 1 1 1.0
207 4 45.4300000000 1.8793379348 0.6617590102 1 1 1.0
208 1 45.0400000000 2.2442776902 0.7346729588 1 1 1.0
209 3 44.6500000000 2.5865583943 0.5885860374 1 1 1.0
210 3 44.2600000000 2.7863800718 0.2746294063 1 1 1.0
211 3 43.8700000000 2.7738041263 -0.0973105277 1 1 1.0
212 4 43.4800000000 2.5532322023 -0.3970529093 1 1 1.0
213 3 43.0900000000 2.2018655873 -0.5196863910 1 1 1.0
214 2 42.7000000000 1.8426843712 -0.4222886346 1 1 1.0
215 2 42.3100000000 1.6014037937 -0.1389493470 1 1 1.0
216 1 41.9200000000 1.5624732757 0.2311612901 1 1 1.0
217 1 41.5300000000 1.7395186951 0.5585026845 1 1 1.0
218 2 41.1400000000 2.0705732608 0.7285036946 1 1 1.0
219 3 40.7500000000 2.4397662029 0.6816631084 1 1 1.0
220 2 40.3600000000 2.7178781268 0.4343753676 1 1 1.0
221 2 39.9700000000 2.8075684544 0.0731924304 1 1 1.0
222 3 39.5800000000 2.6774451182 -0.2754698508 1 1 1.0
223 3 39.1900000000 2.3730519430 -0.4895779166 1 1 1.0
224 4 38.8000000000 2.0009280775 -0.4941928626 1 1 1.0
225 1 38.4100000000 1.6913187543 -0.2876994343 1 1 1.0
226 3 38.0200000000 1.5525888001 0.0576286254 1 1 1.0
227 3 37.6300000000 1.6332943997 0.4209247514 1 1 1.0
228 4 37.2400000000 1.9051881856 0.6750334646 1 1 1.0
229 2 36.8500000000 2.2731059595 0.7310154321 1 1 1.0
230 3 36.4600000000 2.6082746421 0.5692766824 1 1 1.0
231 1 36.0700000000 2.7933835017 0.2464265948 1 1 1.0
232 2 35.6800000000 2.7636435026 -0.1245356693 1 1 1.0
233 2 35.2900000000 2.5294637945 -0.4137714439 1 1 1.0
234 3 34.9000000000 2.1728084582 -0.5200467470 1 1 1.0
235 2 34.5100000000 1.8185086627 -0.4061646857 1 1 1.0
236 4 34.1200000000 1.5905711260 -0.1119845567 1 1 1.0
237 4 33.7300000000 1.5687751371 0.2595291091 1 1 1.0
238 1 33.3400000000 1.7607494023 0.5783446521 1 1 1.0
239 2 32.9500000000 2.0993019591 0.7328750221 1 1 1.0
240 2 32.5600000000 2.4659377027 0.6690338090 1 1 1.0
241 1 32.1700000000 2.7323322710 0.4091657598 1 1 1.0
242 3 31.7800000000 2.8052462196 0.0442260044 1 1 1.0
243 1 31.3900000000 2.6591592982 -0.2980546996 1 1 1.0
244 3 31.0000000000 2.3452026672 -0.4978763771 1 1 1.0
245 1 30.6100000000 1.9732627331 -0.4853004317 1 1 1.0
246 1 30.2200000000 1.6735203515 -0.2647285077 1 1 1.0
247 4 29.8300000000 1.5508868699 0.0866381073 1 1 1.0
248 1 29.4400000000 1.6482846262 0.4458193235 1 1 1.0
249 1 29.0500000000 1.9316239138 0.6870999009 1 1 1.0
250 4 28.6600000000 2.3017345510 0.7260304189 1 1 1.0
251 1 28.2700000000 2.6290759453 0.5489849996 1 1 1.0
252 1 27.8800000000 2.7990769555 0.2179304338 1 1 1.0
253 2 27.4900000000 2.7522363693 -0.1512625083 1 1 1.0
254 1 27.1000000000 2.5049486284 -0.4293744321 1 1 1.0
255 4 26.7100000000 2.1437656913 -0.5190647598 1 1 1.0
256 2 26.3200000000 1.7951034101 -0.3889414236 1 1 1.0
257 4 25.9300000000 1.5809953442 -0.0845482484 1 1 1.0
258 4 25.5400000000 1.5763803983 0.2875756171 1 1 1.0
259 2 25.1500000000 1.7828738265 0.5971849404 1 1 1.0
260 2 24.7600000000 2.1282018862 0.7359148945 1 1 1.0
261 1 24.3700000000 2.4914980122 0.6552092949 1 1 1.0
262 2 23.9800000000 2.7456067255 0.3833155090 1 1 1.0
263 1 23.5900000000 2.8015886930 0.0153977352 1 1 1.0
264 1 23.2000000000 2.6398499433 -0.3197709474 1 1 1.0
265 2 22.8100000000 2.3169998557 -0.5048798071 1 1 1.0
266 4 22.4200000000 1.9460375915 -0.4751398079 1 1 1.0
267 4 22.0300000000 1.6568018169 -0.2409600999 1 1 1.0
268 1 21.6400000000 1.5505265138 0.1156952364 1 1 1.0
269 3 21.2500000000 1.6644085751 0.4699950319 1 1 1.0
270 3 20.8600000000 1.9585887042 0.6979325687 1 1 1.0
271 3 20.4700000000 2.3301023699 0.7197285575 1 1 1.0
272 4 20.0800000000 2.6489179129 0.5277542923 1 1 1.0
273 2 19.6900000000 2.8034482829 0.1892017355 1 1 1.0
274 1 19.3000000000 2.7396070698 -0.1774340081 1 1 1.0
275 1 18.9100000000 2.4797390207 -0.4438285764 1 1 1.0
276 3 18.5200000000 2.1147992653 -0.5167425250 1 1 1.0
277 1 18.1300000000 1.7725185612 -0.3706556036 1 1 1.0
278 4 17.7400000000 1.5726968837 -0.0566989726 1 1 1.0
279 3 17.3500000000 1.5852728292 0.3152409615 1 1 1.0
280 4 16.9600000000 1.8058447531 0.6149833431 1 1 1.0
281 3 16.5700000000 2.1572113682 0.7376168248 1 1 1.0
282 4 16.1800000000 2.5163925843 0.6402190684 1 1 1.0
283 3 15.7900000000 2.7576731618 0.3568797808 1 1 1.0
284 2 15.4000000000 2.7966036798 -0.0132308563 1 1 1.0
285 3 15.0100000000 2.6195582604 -0.3405722507 1 1 1.0
286 2 14.6200000000 2.2885036946 -0.5105732608 1 1 1.0
287 1 14.2300000000 1.9193107526 -0.4637326746 1 1 1.0
288 1 13.8400000000 1.6411988287 -0.2164449338 1 1 1.0
289 1 13.4500000000 1.5515085010 0.1447380034 1 1 1.0
290 4 13.0600000000 1.6816318373 0.4934002846 1 1 1.0
291 4 12.6700000000 1.9860250125 0.7075083504 1 1 1.0
292 3 12.2800000000 2.3581488779 0.7121232964 1 1 1.0
293 1 11.8900000000 2.6677582012 0.5056298681 1 1 1.0
294 4 11.5000000000 2.8064881554 0.1603018084 1 1 1.0
295 1 11.1100000000 2.7257825557 -0.2029943176 1 1 1.0
296 2 10.7200000000 2.4538887698 -0.4571030309 1 1 1.0
297 4 10.3300000000 2.0859709960 -0.5130849983 1 1 1.0
298 3 9.9400000000 1.7508023134 -0.3513462486 1 1 1.0
299 3 9.5500000000 1.5656934538 -0.0284961610 1 1 1.0
300 3 9.1600000000 1.5954334529 0.3424661031 1 1 1.0
301 2 8.7700000000 1.8296131610 0.6317018777 1 1 1.0
302 3 8.3800000000 2.1862684973 0.7379771808 1 1 1.0
303 3 7.9900000000 2.5405682928 0.6240951195 1 1 1.0
304 3 7.6000000000 2.7685058295 0.3299149905 1 1 1.0
305 3 7.2100000000 2.7903018184 -0.0415986753 1 1 1.0
306 2 6.8200000000 2.5983275532 -0.3604142183 1 1 1.0
307 3 6.4300000000 2.2597749963 -0.5149445883 1 1 1.0
308 1 6.0400000000 1.8931392527 -0.4511033752 1 1 1.0
309 4 5.6500000000 1.6267446844 -0.1912353260 1 1 1.0
310 3 5.2600000000 1.5538307358 0.1737044294 1 1 1.0
311 4 4.8700000000 1.6999176572 0.5159851334 1 1 1.0
312 2 4.4800000000 2.0138742883 0.7158068109 1 1 1.0
313 3 4.0900000000 2.3858142224 0.7032308655 1 1 1.0
314 4 3.7000000000 2.6855566040 0.4826589415 1 1 1.0
315 1 3.3100000000 2.8081900856 0.1312923265 1 1 1.0
316 1 2.9200000000 2.7107923293 -0.2278888897 1 1 1.0
317 1 2.5300000000 2.4274530417 -0.4691694671 1 1 1.0
318 1 2.1400000000 2.0573424045 -0.5080999852 1 1 1.0
319 4 1.7500000000 1.7300010102 -0.3310545658 1 1 1.0
320 4 1.3600000000 1.5600000000 0.0000000000 1 1 1.0
321 4 1.3600000000 0.0000000000 0.0000000000 1 1 1.0
322 1 1.7500000000 -0.0473191069 0.3696500881 1 1 1.0
323 2 2.1400000000 -0.2956201511 0.6475473297 1 1 1.0
324 3 2.5300000000 -0.6576326395 0.7360190414 1 1 1.0
325 4 2.9200000000 -1.0061198602 0.6039700258 1 1 1.0
326 2 3.3100000000 -1.2185988340 0.2978116172 1 1 1.0
327 4 3.7000000000 -1.2203894689 -0.0748505343 1 1 1.0
328 3 4.0900000000 -1.0108624095 -0.3830366742 1 1 1.0
329 4 4.4800000000 -0.6636602371 -0.5184284648 1 1 1.0
330 2 4.8700000000 -0.3008142742 -0.4334396849 1 1 1.0
331 1 5.2600000000 -0.0498541744 -0.1579413840 1 1 1.0
332 1 5.6500000000 0.0010149895 0.2112369112 1 1 1.0
333 4 6.0400000000 -0.1660857932 0.5443399191 1 1 1.0
334 3 6.4300000000 -0.4924255261 0.7242917577 1 1 1.0
335 1 6.8200000000 -0.8633054188 0.6878446634 1 1 1.0
336 3 7.2100000000 -1.1483721284 0.4478087148 1 1 1.0
337 1 7.6000000000 -1.2474331146 0.0885494679 1 1 1.0
338 1 7.9900000000 -1.1256713628 -0.2636640487 1 1 1.0
339 1 8.3800000000 -0.8258825372 -0.4850391727 1 1 1.0
340 4 8.7700000000 -0.4534335676 -0.4977690777 1 1 1.0
341 3 9.1600000000 -0.1392292810 -0.2973795775 1 1 1.0
342 4 9.5500000000 0.0062967835 0.0456983291 1 1 1.0
343 2 9.9400000000 -0.0680034934 0.4108828775 1 1 1.0
344 3 10.3300000000 -0.3360157559 0.6698224701 1 1 1.0
345 1 10.7200000000 -0.7035415990 0.7315074779 1 1 1.0
346 1 11.1100000000 -1.0414065292 0.5742574400 1 1 1.0
347 1 11.5000000000 -1.2308609892 0.2533411065 1 1 1.0
348 3 11.8900000000 -1.2053173244 -0.1184488969 1 1 1.0
349 2 12.2800000000 -0.9737533795 -0.4104393504 1 1 1.0
350 4 12.6700000000 -0.6175570511 -0.5200042220 1 1 1.0
351 1 13.0600000000 -0.2619208422 -0.4086346911 1 1 1.0
352 2 13.4500000000 -0.0318403906 -0.1154738628 1 1 1.0
353 1 13.8400000000 -0.0081821885 0.2564408788 1 1 1.0
354 1 14.2300000000 -0.1992613962 0.5763924718 1 1 1.0
355 2 14.6200000000 -0.5379193083 0.7319273685 1 1 1.0
356 1 15.0100000000 -0.9051276575 0.6683796404 1 1 1.0
357 1 15.4000000000 -1.1718235403 0.4080844395 1 1 1.0
358 3 15.7900000000 -1.2442712202 0.0425278514 1 1 1.0
359 4 16.1800000000 -1.0970074746 -0.2998077658 1 1 1.0
360 1 16.5700000000 -0.7817911665 -0.4986015398 1 1 1.0
361 4 16.9600000000 -0.4094115307 -0.4839833228 1 1 1.0
362 3 17.3500000000 -0.1107490254 -0.2610909869 1 1 1.0
363 2 17.7400000000 0.0092252880 0.0917353863 1 1 1.0
364 4 18.1300000000 -0.0916560230 0.4504877335 1 1 1.0
365 3 18.5200000000 -0.3779361530 0.6890751862 1 1 1.0
366 2 18.9100000000 -0.7489960805 0.7236412923 1 1 1.0
367 3 19.3000000000 -1.0744191857 0.5420370849 1 1 1.0
368 4 19.6900000000 -1.2398288456 0.2080910864 1 1 1.0
369 1 20.0800000000 -1.1870884437 -0.1608245347 1 1 1.0
370 1 20.4700000000 -0.9347346756 -0.4350468191 1 1 1.0
371 1 20.8600000000 -0.5714624475 -0.5181947221 1 1 1.0
372 3 21.2500000000 -0.2249512325 -0.3810442085 1 1 1.0
373 1 21.6400000000 -0.0169895022 -0.0717996383 1 1 1.0
374 4 22.0300000000 -0.0206696706 0.3008486434 1 1 1.0
375 2 22.4200000000 -0.2346982672 0.6059257571 1 1 1.0
376 2 22.8100000000 -0.5838505532 0.7362060959 1 1 1.0
377 3 23.2000000000 -0.9454097986 0.6458999634 1 1 1.0
378 2 23.5900000000 -1.1922985931 0.3667473015 1 1 1.0
379 2 23.9800000000 -1.2377428075 -0.0031379630 1 1 1.0
380 4 24.3700000000 -1.0657701411 -0.3337520696 1 1 1.0
381 4 24.7600000000 -0.7368239134 -0.5088939115 1 1 1.0
382 4 25.1500000000 -0.3665190211 -0.4670062974 1 1 1.0
383 1 25.5400000000 -0.0850067113 -0.2228114880 1 1 1.0
384 2 25.9300000000 0.0087697424 0.1378632439 1 1 1.0
385 1 26.3200000000 -0.1181493173 0.4882513684 1 1 1.0
386 3 26.7100000000 -0.4211555847 0.7052017946 1 1 1.0
387 2 27.1000000000 -0.7937512940 0.7124628470 1 1 1.0
388 4 27.4900000000 -1.1049800435 0.5074824797 1 1 1.0
389 3 27.8800000000 -1.2454541077 0.1623052458 1 1 1.0
390 2 28.2700000000 -1.1658009963 -0.2017492382 1 1 1.0
391 3 28.6600000000 -0.8940164287 -0.4567265593 1 1 1.0
392 3 29.0500000000 -0.5256246638 -0.5130097099 1 1 1.0
393 3 29.4400000000 -0.1901045410 -0.3508168226 1 1 1.0
394 2 29.8300000000 -0.0053814870 -0.0271539134 1 1 1.0
395 2 30.2200000000 -0.0363802068 0.3442210519 1 1 1.0
396 1 30.6100000000 -0.2722055647 0.6327807270 1 1 1.0
397 2 31.0000000000 -0.6299719032 0.7371048973 1 1 1.0
398 3 31.3900000000 -0.9839349070 0.6205266941 1 1 1.0
399 1 31.7800000000 -1.2096870206 0.3240199173 1 1 1.0
400 1 32.1700000000 -1.2278830348 -0.0482020468 1 1 1.0
401 4 32.5600000000 -1.0321275873 -0.3653141568 1 1 1.0
402 2 32.9500000000 -0.6912229441 -0.5158608594 1 1 1.0
403 4 33.3400000000 -0.3249870318 -0.4469294293 1 1 1.0
404 2 33.7300000000 -0.0621409713 -0.1827472308 1 1 1.0
405 1 34.1200000000 0.0049326000 0.1838334854 1 1 1.0
406 4 34.5100000000 -0.1473406998 0.5239704103 1 1 1.0
407 4 34.9000000000 -0.4654412973 0.7181154473 1 1 1.0
408 4 35.2900000000 -0.8375662150 0.6980323424 1 1 1.0
409 2 35.6800000000 -1.1329245205 0.4707797145 1 1 1.0
410 3 36.0700000000 -1.2477064813 0.1162301595 1 1 1.0
411 3 36.4600000000 -1.1415696236 -0.2410026119 1 1 1.0
412 3 36.8500000000 -0.8518179224 -0.4753618173 1 1 1.0
413 4 37.2400000000 -0.4802905543 -0.5044771086 1 1 1.0
414 4 37.6300000000 -0.1575684305 -0.3181153198 1 1 1.0
415 1 38.0200000000 0.0029211412 0.0182228773 1 1 1.0
416 1 38.4100000000 -0.0552291897 0.3863245270 1 1 1.0
417 2 38.8000000000 -0.3115812972 0.6568127568 1 1 1.0
418 4 39.1900000000 -0.6760349768 0.7346189323 1 1 1.0
419 4 39.5800000000 -1.0204955099 0.5923964776 1 1 1.0
420 4 39.9700000000 -1.2238951793 0.2801323907 1 1 1.0
421 2 40.3600000000 -1.2147450006 -0.0924217124 1 1 1.0
422 1 40.7500000000 -0.9962609918 -0.3943240532 1 1 1.0
423 1 41.1400000000 -0.6452338375 -0.5194648637 1 1 1.0
424 3 41.5300000000 -0.2850392287 -0.4238608402 1 1 1.0
425 2 41.9200000000 -0.0422749462 -0.1411139771 1 1 1.0
426 3 42.3100000000 -0.0022654748 0.2293985432 1 1 1.0
427 1 42.7000000000 -0.1790729635 0.5574524983 1 1 1.0
428 1 43.0900000000 -0.5105547951 0.7277465991 1 1 1.0
429 4 43.4800000000 -0.8802048832 0.6804274923 1 1 1.0
430 3 43.8700000000 -1.1581021248 0.4321264480 1 1 1.0
431 1 44.2600000000 -1.2465738365 0.0701139597 1 1 1.0
432 1 44.6500000000 -1.1145248209 -0.2783732610 1 1 1.0
433 2 45.0400000000 -0.8083664123 -0.4908522349 1 1 1.0
434 4 45.4300000000 -0.4357042608 -0.4926428698 1 1 1.0
435 1 45.8200000000 -0.1275181209 -0.2831158104 1 1 1.0
436 2 46.2100000000 0.0078736697 0.0640863621 1 1 1.0
437 1 46.6000000000 -0.0771151102 0.4269323250 1 1 1.0
438 1 46.9900000000 -0.3526134111 0.6778924248 1 1 1.0
439 3 47.3800000000 -0.7217917063 0.7287615887 1 1 1.0
440 1 47.7700000000 -1.0548947142 0.5616608060 1 1 1.0
441 2 48.1600000000 -1.2348465528 0.2353210730 1 1 1.0
442 3 48.5500000000 -1.1983994585 -0.1355588197 1 1 1.0
443 2 48.9400000000 -0.9583635099 -0.4206255292 1 1 1.0
444 4 49.3300000000 -0.5991042630 -0.5196865155 1 1 1.0
445 1 49.7200000000 -0.2468907464 -0.3979247637 1 1 1.0
446 1 50.1100000000 -0.0255156224 -0.0981359381 1 1 1.0
447 1 50.5000000000 -0.0127857174 0.2743130316 1 1 1.0
448 1 50.8900000000 -0.2131752176 0.5885173182 1 1 1.0
449 2 51.2800000000 -0.5562531243 0.7340433826 1 1 1.0
450 2 51.6700000000 -0.9214376726 0.6597431057 1 1 1.0
451 1 52.0600000000 -1.1803772652 0.3917308432 1 1 1.0
452 2 52.4500000000 -1.2420622730 0.0242050001 1 1 1.0
453 2 52.8400000000 -1.0848122351 -0.3136599301 1 1 1.0
454 3 53.2300000000 -0.7638959016 -0.5031143901 1 1 1.0
455 3 53.6200000000 -0.3921058982 -0.4775707253 1 1 1.0
456 3 54.0100000000 -0.1001154447 -0.2460067804 1 1 1.0
457 3 54.4000000000 0.0094494269 0.1101895480 1 1 1.0
458 3 54.7900000000 -0.1019201040 0.4658257569 1 1 1.0
459 3 55.1800000000 -0.3950809323 0.6959062086 1 1 1.0
460 1 55.5700000000 -0.7669956739 0.7195644106 1 1 1.0
461 3 55.9600000000 -1.0869472669 0.5284852029 1 1 1.0
462 3 56.3500000000 -1.2424821636 0.1898272909 1 1 1.0
463 2 56.7400000000 -1.1789344355 -0.1773810584 1 1 1.0
464 3 57.1300000000 -0.9186392346 -0.4440769411 1 1 1.0
465 4 57.5200000000 -0.5530826465 -0.5165246210 1 1 1.0
466 2 57.9100000000 -0.2107470293 -0.3692608755 1 1 1.0
467 1 58.3000000000 -0.0119532553 -0.0540445674 1 1 1.0
468 3 58.6900000000 -0.0265714723 0.3183350685 1 1 1.0
469 3 59.0800000000 -0.2494638082 0.6169975738 1 1 1.0
470 3 59.4700000000 -0.6022901814 0.7369718871 1 1 1.0
471 3 59.8600000000 -0.9610425286 0.6360905762 1 1 1.0
472 3 60.2500000000 -1.1996299813 0.3498104461 1 1 1.0
473 4 60.6400000000 -1.2341960874 -0.0212494814 1 1 1.0
474 2 61.0300000000 -1.0525918800 -0.3466725865 1 1 1.0
475 4 61.4200000000 -0.7186458815 -0.5120822464 1 1 1.0
476 3 61.8100000000 -0.3497302604 -0.4593418445 1 1 1.0
477 2 62.2000000000 -0.0755079760 -0.2069880765 1 1 1.0
478 4 62.5900000000 0.0076399270 0.1562841516 1 1 1.0
479 4 62.9800000000 -0.1295105866 0.5027953666 1 1 1.0
480 3 63.3700000000 -0.4387551568 0.7107570970 1 1 1.0
481 1 63.7600000000 -0.8114034385 0.7070769285 1 1 1.0
482 4 64.1500000000 -1.1164805522 0.4930483319 1 1 1.0
483 3 64.5400000000 -1.2467608910 0.1438960459 1 1 1.0
484 2 64.9300000000 -1.1564547585 -0.2176631995 1 1 1.0
485 1 65.3200000000 -0.8773020966 -0.4645519939 1 1 1.0
486 2 65.7100000000 -0.5074168321 -0.5099962084 1 1 1.0
487 3 66.1000000000 -0.1768027255 -0.3380235419 1 1 1.0
488 3 66.4900000000 -0.0016608836 -0.0090773143 1 1 1.0
489 1 66.8800000000 -0.0435484977 0.3612275780 1 1 1.0
490 3 67.2700000000 -0.2877433071 0.6427398878 1 1 1.0
491 3 67.6600000000 -0.6484180390 0.7365163415 1 1 1.0
492 2 68.0500000000 -0.9988061635 0.6095972818 1 1 1.0
493 4 68.4400000000 -1.2157565897 0.3065910145 1 1 1.0
494 3 68.8300000000 -1.2230176421 -0.0660046949 1 1 1.0
495 2 69.2200000000 -1.0180372748 -0.3772334444 1 1 1.0
496 1 69.6100000000 -0.6728600409 -0.5177075085 1 1 1.0
497 1 70.0000000000 -0.3088055569 -0.4380543972 1 1 1.0
498 4 70.3900000000 -0.0538282358 -0.1662698295 1 1 1.0
499 1 70.7800000000 0.0024549148 0.2021219354 1 1 1.0
500 1 71.1700000000 -0.1597379725 0.5376420582 1 1 1.0
501 2 71.5600000000 -0.4834008817 0.7223651121 1 1 1.0
502 4 71.9500000000 -0.8547758470 0.6913663923 1 1 1.0
503 2 72.3400000000 -1.1433355221 0.4555410345 1 1 1.0
504 3 72.7300000000 -1.2476596924 0.0977746959 1 1 1.0
505 2 73.1200000000 -1.1310814892 -0.2561883078 1 1 1.0
506 3 73.5100000000 -0.8345747124 -0.4819404214 1 1 1.0
507 2 73.9000000000 -0.4623527483 -0.5001364357 1 1 1.0
508 1 74.2900000000 -0.1452406383 -0.3043809882 1 1 1.0
509 4 74.6800000000 0.0053060643 0.0365236551 1 1 1.0
510 3 75.0700000000 -0.0636253658 0.4027595673 1 1 1.0
511 4 75.4600000000 -0.3278075643 0.6656056278 1 1 1.0
512 4 75.8500000000 -0.6943882805 0.7326791991 1 1 1.0
513 3 76.2400000000 -1.0345252054 0.5804058993 1 1 1.0
514 3 76.6300000000 -1.2286702424 0.2623053018 1 1 1.0
515 1 77.0200000000 -1.2085871375 -0.1098196159 1 1 1.0
516 3 77.4100000000 -0.9813345096 -0.4051779214 1 1 1.0
517 3 77.8000000000 -0.6267849546 -0.5199598821 1 1 1.0
518 3 78.1900000000 -0.2695521832 -0.4138230245 1 1 1.0
519 4 78.5800000000 -0.0351929778 -0.1240713233 1 1 1.0
520 2 78.9700000000 -0.0060776865 0.2474560449 1 1 1.0
521 2 79.3600000000 -0.1924394753 0.5701781686 1 1 1.0
522 3 79.7500000000 -0.5287776724 0.7306677404 1 1 1.0
523 3 80.1400000000 -0.8968793221 0.6725174094 1 1 1.0
524 4 80.5300000000 -1.1673675519 0.4161653019 1 1 1.0
525 3 80.9200000000 -1.2451737274 0.0517116224 1 1 1.0
526 2 81.3100000000 -1.1029512727 -0.2927489108 1 1 1.0
527 4 81.7000000000 -0.7906871858 -0.4961485802 1 1 1.0
528 2 82.0900000000 -0.4181330827 -0.4869984015 1 1 1.0
529 4 82.4800000000 -0.1162307419 -0.2685143926 1 1 1.0
530 3 82.8700000000 0.0089100686 0.0825127616 1 1 1.0
531 1 83.2600000000 -0.0866939549 0.4427073704 1 1 1.0
532 4 83.6500000000 -0.3694408180 0.6854716529 1 1 1.0
533 4 84.0400000000 -0.7399533383 0.7254811244 1 1 1.0
534 2 84.4300000000 -1.0680072934 0.5486736357 1 1 1.0
535 4 84.8200000000 -1.2383013942 0.2171918040 1 1 1.0
536 1 84.8200000000 -2.7983013942 0.2171918040 1 1 1.0
537 1 84.4300000000 -2.8456205011 -0.1524582841 1 1 1.0
538 3 84.0400000000 -3.0939215453 -0.4303555257 1 1 1.0
539 1 83.6500000000 -3.4559340337 -0.5188272373 1 1 1.0
540 1 83.2600000000 -3.8044212544 -0.3867782218 1 1 1.0
541 2 82.8700000000 -4.0169002282 -0.0806198132 1 1 1.0
542 4 82.4800000000 -4.0186908631 0.2920423383 1 1 1.0
543 1 82.0900000000 -3.8091638037 0.6002284783 1 1 1.0
544 4 81.7000000000 -3.4619616313 0.7356202688 1 1 1.0