# LAMMPS data file
850 atoms
850 ellipsoids
849 bonds

4 atom types
1 bond types

0.0 50.0 xlo xhi
0.0 50.0 ylo yhi
0.0 50.0 zlo zhi

Masses

1 3.1575
2 3.1575
3 3.1575
4 3.1575

Atoms

1 3 32.0000000000 0.0000000000 0.0000000000 1 1 1.0
2 4 32.3900000000 -0.0572089543 0.3788394106 1 1 1.0
3 1 32.7800000000 -0.3261681891 0.6517003522 1 1 1.0
4 1 33.1700000000 -0.7041444182 0.7143592194 1 1 1.0
5 3 33.5600000000 -1.0467635692 0.5428824546 1 1 1.0
6 1 33.9500000000 -1.2231567714 0.2027683537 1 1 1.0
7 1 34.3400000000 -1.1659478171 -0.1760710568 1 1 1.0
8 3 34.7300000000 -0.8969885823 -0.4489319985 1 1 1.0
9 4 35.1200000000 -0.5190123532 -0.5115908657 1 1 1.0
10 3 35.5100000000 -0.1763932023 -0.3401141009 1 1 1.0
11 2 35.9000000000 0.0000000000 0.0000000000 1 1 1.0
12 1 36.2900000000 -0.0572089543 0.3788394106 1 1 1.0
13 3 36.6800000000 -0.3261681891 0.6517003522 1 1 1.0
14 2 37.0700000000 -0.7041444182 0.7143592194 1 1 1.0
15 2 37.4600000000 -1.0467635692 0.5428824546 1 1 1.0
16 3 37.8500000000 -1.2231567714 0.2027683537 1 1 1.0
17 1 37.8500000000 -2.7831567714 0.2027683537 1 1 1.0
18 2 37.4600000000 -2.8338062751 -0.1700308291 1 1 1.0
19 1 37.0700000000 -3.0891247463 -0.4463586800 1 1 1.0
20 2 36.6800000000 -3.4567645380 -0.5262685451 1 1 1.0
21 1 36.2900000000 -3.8037518405 -0.3808573529 1 1 1.0
22 2 35.9000000000 -4.0045827653 -0.0627197371 1 1 1.0
23 1 35.5100000000 -3.9866175879 0.3130752274 1 1 1.0
24 1 35.1200000000 -3.7563542396 0.6106040384 1 1 1.0
25 2 34.7300000000 -3.3970780321 0.7222517414 1 1 1.0
26 1 34.3400000000 -3.0387377005 0.6076358188 1 1 1.0
27 2 33.9500000000 -2.8109434778 0.3082123811 1 1 1.0
28 3 33.5600000000 -2.7960876030 -0.0677183385 1 1 1.0
29 2 33.1700000000 -2.9995433852 -0.3841837357 1 1 1.0
30 2 32.7800000000 -3.3477216999 -0.5267195702 1 1 1.0
31 3 32.3900000000 -3.7146878741 -0.4437712135 1 1 1.0
32 2 32.0000000000 -3.9677117431 -0.1653407471 1 1 1.0
33 2 31.6100000000 -4.0152756080 0.2078646678 1 1 1.0
34 4 31.2200000000 -3.8401758132 0.5408581584 1 1 1.0
35 3 30.8300000000 -3.5057452386 0.7131973407 1 1 1.0
36 2 30.4400000000 -3.1329460558 0.6625478371 1 1 1.0
37 4 30.0500000000 -2.8566182049 0.4072293658 1 1 1.0
38 4 29.6600000000 -2.7767083398 0.0395895742 1 1 1.0
39 3 29.2700000000 -2.9221195320 -0.3073977284 1 1 1.0
40 1 28.8800000000 -3.2402571478 -0.5082286531 1 1 1.0
41 4 28.4900000000 -3.6160521123 -0.4902634758 1 1 1.0
42 3 28.1000000000 -3.9135809233 -0.2600001275 1 1 1.0
43 4 27.7100000000 -4.0252286264 0.0992760801 1 1 1.0
44 2 27.3200000000 -3.9106127037 0.4576164116 1 1 1.0
45 4 26.9300000000 -3.6111892660 0.6854106343 1 1 1.0
46 3 26.5400000000 -3.2352585464 0.7002665091 1 1 1.0
47 2 26.1500000000 -2.9187931492 0.4968107269 1 1 1.0
48 3 25.7600000000 -2.7762573147 0.1486324123 1 1 1.0
49 3 25.3700000000 -2.8592056714 -0.2183337620 1 1 1.0
50 2 24.9800000000 -3.1376361378 -0.4713576310 1 1 1.0
51 3 24.5900000000 -3.5108415527 -0.5189214958 1 1 1.0
52 4 24.2000000000 -3.8438350434 -0.3438217011 1 1 1.0
53 4 23.8100000000 -4.0161742257 -0.0093911265 1 1 1.0
54 4 23.8100000000 -5.5761742257 -0.0093911265 1 1 1.0
55 2 24.2000000000 -5.6291542773 0.3655784128 1 1 1.0
56 3 24.5900000000 -5.8893468436 0.6407308610 1 1 1.0
57 1 24.9800000000 -6.2607725429 0.7145684611 1 1 1.0
58 2 25.3700000000 -6.6064205087 0.5598541276 1 1 1.0
59 4 25.7600000000 -6.7987887202 0.2336586149 1 1 1.0
60 4 26.1500000000 -6.7669167258 -0.1436916431 1 1 1.0
61 2 26.5400000000 -6.5225614113 -0.4330003392 1 1 1.0
62 3 26.9300000000 -6.1558601406 -0.5275477842 1 1 1.0
63 3 27.3200000000 -5.8020810411 -0.3924574810 1 1 1.0
64 3 27.7100000000 -5.5917255321 -0.0775613058 1 1 1.0
65 4 28.1000000000 -5.6023891883 0.3009823875 1 1 1.0
66 2 28.4900000000 -5.8301384186 0.6035370592 1 1 1.0
67 1 28.8800000000 -6.1909614828 0.7184968678 1 1 1.0
68 1 29.2700000000 -6.5517585961 0.6034556390 1 1 1.0
69 3 29.6600000000 -6.7794395464 0.3008495812 1 1 1.0
70 2 30.0500000000 -6.7900177803 -0.0776965088 1 1 1.0
71 1 30.4400000000 -6.5795912174 -0.3925452072 1 1 1.0
72 4 30.8300000000 -6.2257816425 -0.5275556734 1 1 1.0
73 4 31.2200000000 -5.8591017166 -0.4329254812 1 1 1.0
74 3 31.6100000000 -5.6148116936 -0.1435616515 1 1 1.0
75 1 32.0000000000 -5.5830248527 0.2337957892 1 1 1.0
76 4 32.3900000000 -5.7754666683 0.5599478839 1 1 1.0
77 1 32.7800000000 -6.1211495381 0.7145842148 1 1 1.0
78 4 33.1700000000 -6.4925585658 0.6406628008 1 1 1.0
79 4 33.5600000000 -6.7526890347 0.3654516447 1 1 1.0
80 3 33.9500000000 -6.8055844696 -0.0095298405 1 1 1.0
81 4 34.3400000000 -6.6317328943 -0.3459591363 1 1 1.0
82 1 34.7300000000 -6.2952643759 -0.5197347887 1 1 1.0
83 4 35.1200000000 -5.9202948365 -0.4667547371 1 1 1.0
84 1 35.5100000000 -5.6451423884 -0.2065621708 1 1 1.0
85 4 35.9000000000 -5.5713047882 0.1648635285 1 1 1.0
86 3 36.2900000000 -5.7260191217 0.5105114943 1 1 1.0
87 1 36.6800000000 -6.0522146344 0.7028797058 1 1 1.0
88 2 37.0700000000 -6.4295648925 0.6710077114 1 1 1.0
89 2 37.4600000000 -6.7188735885 0.4266523970 1 1 1.0
90 2 37.8500000000 -6.8134210336 0.0599511263 1 1 1.0
91 1 38.2400000000 -6.6783307303 -0.2938279733 1 1 1.0
92 1 38.6300000000 -6.3634345552 -0.5041834823 1 1 1.0
93 2 39.0200000000 -5.9848908619 -0.4935198261 1 1 1.0
94 2 39.4100000000 -5.6823361902 -0.2657705958 1 1 1.0
95 4 39.8000000000 -5.5673763815 0.0950524685 1 1 1.0
96 1 40.1900000000 -5.6824176104 0.4558495818 1 1 1.0
97 2 40.5800000000 -5.9850236681 0.6835305320 1 1 1.0
98 3 40.9700000000 -6.3635697581 0.6941087659 1 1 1.0
99 4 41.3600000000 -6.6784184566 0.4836822030 1 1 1.0
100 3 41.7500000000 -6.8134289228 0.1298726281 1 1 1.0
101 4 42.1400000000 -6.7187987306 -0.2368072978 1 1 1.0
102 4 42.5300000000 -6.4294349008 -0.4810973207 1 1 1.0
103 3 42.9200000000 -6.0520774601 -0.5128841617 1 1 1.0
104 4 43.3100000000 -5.7259253654 -0.3204423460 1 1 1.0
105 4 43.7000000000 -5.5712890346 0.0252405238 1 1 1.0
106 3 44.0900000000 -5.6452104486 0.3966495515 1 1 1.0
107 2 44.4800000000 -5.9204216046 0.6567800204 1 1 1.0
108 4 44.8700000000 -6.2954030899 0.7096754552 1 1 1.0
109 3 45.2600000000 -6.6318323857 0.5358238800 1 1 1.0
110 2 45.6500000000 -6.8056080381 0.1993553615 1 1 1.0
111 2 45.6500000000 -8.3656080381 0.1993553615 1 1 1.0
112 4 45.2600000000 -8.4157722731 -0.1729884816 1 1 1.0
113 1 44.8700000000 -8.6700720579 -0.4495531348 1 1 1.0
114 3 44.4800000000 -9.0369078085 -0.5307191380 1 1 1.0
115 3 44.0900000000 -9.3841441309 -0.3872502411 1 1 1.0
116 2 43.7000000000 -9.5867054071 -0.0708243929 1 1 1.0
117 1 43.3100000000 -9.5716284267 0.3045808183 1 1 1.0
118 2 42.9200000000 -9.3443439658 0.6037432521 1 1 1.0
119 1 42.5300000000 -8.9867206035 0.7189036566 1 1 1.0
120 1 42.1400000000 -8.6275754025 0.6085808910 1 1 1.0
121 1 41.7500000000 -8.3962735965 0.3125135633 1 1 1.0
122 2 41.3600000000 -8.3761308252 -0.0626539416 1 1 1.0
123 4 40.9700000000 -8.5744025782 -0.3817851057 1 1 1.0
124 4 40.5800000000 -8.9196707452 -0.5299278776 1 1 1.0
125 2 40.1900000000 -9.2875686438 -0.4537207638 1 1 1.0
126 2 39.8000000000 -9.5455782911 -0.1806138070 1 1 1.0
127 3 39.4100000000 -9.6007637987 0.1910190061 1 1 1.0
128 2 39.0200000000 -9.4332471729 0.5273143644 1 1 1.0
129 4 38.6300000000 -9.1033684303 0.7071376197 1 1 1.0
130 2 38.2400000000 -8.7299509340 0.6657158686 1 1 1.0
131 2 37.8500000000 -8.4475008435 0.4179693563 1 1 1.0
132 2 37.4600000000 -8.3577575718 0.0531371577 1 1 1.0
133 3 37.0700000000 -8.4930469283 -0.2973670192 1 1 1.0
134 2 36.6800000000 -8.8046372603 -0.5072904647 1 1 1.0
135 2 36.2900000000 -9.1802927479 -0.5010180921 1 1 1.0
136 3 35.9000000000 -9.4847011000 -0.2808092296 1 1 1.0
137 1 35.5100000000 -9.6082134687 0.0740161962 1 1 1.0
138 2 35.1200000000 -9.5063403092 0.4356489482 1 1 1.0
139 3 34.7300000000 -9.2157766549 0.6738277692 1 1 1.0
140 3 34.3400000000 -8.8411844500 0.7027598968 1 1 1.0
141 1 33.9500000000 -8.5174929877 0.5120238876 1 1 1.0
142 2 33.5600000000 -8.3612969532 0.1703234533 1 1 1.0
143 3 33.1700000000 -8.4288586506 -0.1992598323 1 1 1.0
144 2 32.7800000000 -8.6958421435 -0.4636009047 1 1 1.0
145 4 32.3900000000 -9.0660791359 -0.5274832761 1 1 1.0
146 4 32.0000000000 -9.4062090961 -0.3678963150 1 1 1.0
147 3 31.6100000000 -9.5937161401 -0.0423237479 1 1 1.0
148 3 31.2200000000 -9.5610596394 0.3319621602 1 1 1.0
149 4 30.8300000000 -9.3200025686 0.6201424450 1 1 1.0
150 3 30.4400000000 -8.9573744445 0.7184136596 1 1 1.0
151 1 30.0500000000 -8.6037950607 0.5913782026 1 1 1.0
152 1 29.6600000000 -8.3866248259 0.2847946461 1 1 1.0
153 1 29.2700000000 -8.3840891435 -0.0909046463 1 1 1.0
154 3 28.8800000000 -8.5971013740 -0.4003916050 1 1 1.0
155 2 28.4900000000 -8.9489338407 -0.5321880518 1 1 1.0
156 3 28.1000000000 -9.3128553797 -0.4388204910 1 1 1.0
157 2 27.7100000000 -9.5577803055 -0.1539202124 1 1 1.0
158 4 27.3200000000 -9.5954858875 0.2198908054 1 1 1.0
159 4 26.9300000000 -9.4123904563 0.5479646554 1 1 1.0
160 2 26.5400000000 -9.0744455634 0.7121281025 1 1 1.0
161 1 26.1500000000 -8.7033800247 0.6532489554 1 1 1.0
162 3 25.7600000000 -8.4328528170 0.3925356687 1 1 1.0
163 4 25.3700000000 -8.3603086935 0.0238979900 1 1 1.0
164 1 24.9800000000 -8.5118782761 -0.3198796265 1 1 1.0
165 4 24.5900000000 -8.8329657233 -0.5149673996 1 1 1.0
166 3 24.2000000000 -9.2079143244 -0.4910940983 1 1 1.0
167 3 23.8100000000 -9.5016664112 -0.2568589611 1 1 1.0
168 3 23.4200000000 -9.6084115559 0.1033657772 1 1 1.0
169 4 23.0300000000 -9.4896998208 0.4598260302 1 1 1.0
170 1 22.6400000000 -9.1882915472 0.6841236909 1 1 1.0
171 4 22.2500000000 -8.8127549455 0.6954660348 1 1 1.0
172 1 21.8600000000 -8.4983594836 0.4897675140 1 1 1.0
173 3 21.4700000000 -8.3583513979 0.1411213840 1 1 1.0
174 3 21.0800000000 -8.4431620425 -0.2248889199 1 1 1.0
175 2 20.6900000000 -8.7222423556 -0.4764253323 1 1 1.0
176 4 20.3000000000 -9.0950667287 -0.5228836446 1 1 1.0
177 1 19.9100000000 -9.4273426473 -0.3475294261 1 1 1.0
178 1 19.5200000000 -9.5993832778 -0.0135258192 1 1 1.0
179 2 19.5200000000 -11.1593832778 -0.0135258192 1 1 1.0
180 2 19.9100000000 -11.2104555105 0.3596690538 1 1 1.0
181 3 20.3000000000 -11.4666603186 0.6357883803 1 1 1.0
182 2 20.6900000000 -11.8349961082 0.7146016547 1 1 1.0
183 4 21.0800000000 -12.1817580682 0.5674998896 1 1 1.0
184 2 21.4700000000 -12.3810726240 0.2478805942 1 1 1.0
185 2 21.8600000000 -12.3605891767 -0.1282353647 1 1 1.0
186 2 22.2500000000 -12.1277431575 -0.4243189972 1 1 1.0
187 1 22.6400000000 -11.7670569883 -0.5328928133 1 1 1.0
188 4 23.0300000000 -11.4094586907 -0.4145448361 1 1 1.0
189 1 23.4200000000 -11.1847553978 -0.1122350342 1 1 1.0
190 3 23.8100000000 -11.1745137458 0.2642990210 1 1 1.0
191 1 24.2000000000 -11.3824514244 0.5783765719 1 1 1.0
192 1 24.5900000000 -11.7330876661 0.7159883887 1 1 1.0
193 4 24.9800000000 -12.0991425437 0.6271817857 1 1 1.0
194 3 25.3700000000 -12.3477392103 0.3441932992 1 1 1.0
195 2 25.7600000000 -12.3886378051 -0.0302530803 1 1 1.0
196 3 26.1500000000 -12.2069922582 -0.3602344153 1 1 1.0
197 3 26.5400000000 -11.8687393702 -0.5259684490 1 1 1.0
198 4 26.9300000000 -11.4966639474 -0.4672942134 1 1 1.0
199 4 27.3200000000 -11.2258282769 -0.2055102839 1 1 1.0
200 1 27.7100000000 -11.1545449127 0.1643565409 1 1 1.0
201 2 28.1000000000 -11.3086895069 0.5080456886 1 1 1.0
202 2 28.4900000000 -11.6323080239 0.7007990066 1 1 1.0
203 1 28.8800000000 -12.0079278913 0.6726476059 1 1 1.0
204 4 29.2700000000 -12.2992001990 0.4338103622 1 1 1.0
205 3 29.6600000000 -12.4003939536 0.0709844947 1 1 1.0
206 2 30.0500000000 -12.2747761190 -0.2841252712 1 1 1.0
207 2 30.4400000000 -11.9679456008 -0.5026151319 1 1 1.0
208 1 30.8300000000 -11.5912809770 -0.5051739089 1 1 1.0
209 3 31.2200000000 -11.2815104013 -0.2908727736 1 1 1.0
210 1 31.6100000000 -11.1510796840 0.0624975904 1 1 1.0
211 1 32.0000000000 -11.2473347930 0.4266647775 1 1 1.0
212 2 32.3900000000 -11.5353354060 0.6694371669 1 1 1.0
213 4 32.7800000000 -11.9105381453 0.7026890934 1 1 1.0
214 3 33.1700000000 -12.2367455169 0.5143502052 1 1 1.0
215 4 33.5600000000 -12.3955452019 0.1727869662 1 1 1.0
216 2 33.9500000000 -12.3292933804 -0.1980141696 1 1 1.0
217 1 34.3400000000 -12.0620392692 -0.4634534775 1 1 1.0
218 4 34.7300000000 -11.6907953268 -0.5271772674 1 1 1.0
219 3 35.1200000000 -11.3503220154 -0.3660539904 1 1 1.0
220 3 35.5100000000 -11.1642101484 -0.0385709236 1 1 1.0
221 1 35.9000000000 -11.2000177875 0.3363965405 1 1 1.0
222 3 36.2900000000 -11.4447468649 0.6227363122 1 1 1.0
223 4 36.6800000000 -11.8095614432 0.7165078942 1 1 1.0
224 4 37.0700000000 -12.1620349007 0.5836724774 1 1 1.0
225 3 37.4600000000 -12.3742204060 0.2724489283 1 1 1.0
226 2 37.8500000000 -12.3690952431 -0.1041895175 1 1 1.0
227 1 38.2400000000 -12.1485198312 -0.4095242090 1 1 1.0
228 4 38.6300000000 -11.7925623978 -0.5327195487 1 1 1.0
229 4 39.0200000000 -11.4304344471 -0.4290559897 1 1 1.0
230 1 39.4100000000 -11.1935873630 -0.1361630998 1 1 1.0
231 4 39.8000000000 -11.1679959424 0.2396398610 1 1 1.0
232 2 40.1900000000 -11.3629497959 0.5619375202 1 1 1.0
233 1 40.5800000000 -11.7076812465 0.7137367730 1 1 1.0
234 3 40.9700000000 -12.0770537887 0.6399349358 1 1 1.0
235 4 41.3600000000 -12.3369862732 0.3673218590 1 1 1.0
236 3 41.7500000000 -12.3931239706 -0.0051447101 1 1 1.0
237 2 42.1400000000 -12.2250890613 -0.3422604994 1 1 1.0
238 2 42.5300000000 -11.8938777245 -0.5216534663 1 1 1.0
239 3 42.9200000000 -11.5197187040 -0.4782044898 1 1 1.0
240 4 43.3100000000 -11.2384306268 -0.2276854212 1 1 1.0
241 3 43.7000000000 -11.1521202398 0.1389660527 1 1 1.0
242 1 44.0900000000 -11.2921179604 0.4886565221 1 1 1.0
243 4 44.4800000000 -11.6076050266 0.6944493724 1 1 1.0
244 3 44.8700000000 -11.9840605587 0.6816424025 1 1 1.0
245 3 45.2600000000 -12.2848323029 0.4548845050 1 1 1.0
246 4 45.6500000000 -12.4007409981 0.0964881315 1 1 1.0
247 1 46.0400000000 -12.2897121280 -0.2634498856 1 1 1.0
248 2 46.4300000000 -11.9920488468 -0.4942731019 1 1 1.0
249 2 46.8200000000 -11.6158020525 -0.5121933669 1 1 1.0
250 1 47.2100000000 -11.2975482277 -0.3107056769 1 1 1.0
251 1 47.6000000000 -11.1528125775 0.0370505275 1 1 1.0
252 3 47.9900000000 -11.2341337183 0.4048407642 1 1 1.0
253 2 48.3800000000 -11.5119923145 0.6591582560 1 1 1.0
254 2 48.7700000000 -11.8855265107 0.7076864995 1 1 1.0
255 2 49.1600000000 -12.2191444893 0.5328098844 1 1 1.0
256 2 49.5500000000 -12.3917439027 0.1980081093 1 1 1.0
257 2 49.5500000000 -13.9517439027 0.1980081093 1 1 1.0
258 4 49.1600000000 -14.0028161354 -0.1751867637 1 1 1.0
259 3 48.7700000000 -14.2590209435 -0.4513060902 1 1 1.0
260 1 48.3800000000 -14.6273567331 -0.5301193646 1 1 1.0
261 3 47.9900000000 -14.9741186930 -0.3830175995 1 1 1.0
262 3 47.6000000000 -15.1734332489 -0.0633983041 1 1 1.0
263 4 47.2100000000 -15.1529498016 0.3127176548 1 1 1.0
264 3 46.8200000000 -14.9201037823 0.6088012873 1 1 1.0
265 3 46.4300000000 -14.5594176132 0.7173751034 1 1 1.0
266 1 46.0400000000 -14.2018193156 0.5990271262 1 1 1.0
267 1 45.6500000000 -13.9771160227 0.2967173243 1 1 1.0
268 3 45.2600000000 -13.9668743707 -0.0798167309 1 1 1.0
269 4 44.8700000000 -14.1748120493 -0.3938942818 1 1 1.0
270 1 44.4800000000 -14.5254482910 -0.5315060987 1 1 1.0
271 3 44.0900000000 -14.8915031686 -0.4426994956 1 1 1.0
272 4 43.7000000000 -15.1400998352 -0.1597110091 1 1 1.0
273 3 43.3100000000 -15.1809984300 0.2147353704 1 1 1.0
274 2 42.9200000000 -14.9993528830 0.5447167053 1 1 1.0
275 1 42.5300000000 -14.6610999951 0.7104507391 1 1 1.0
276 4 42.1400000000 -14.2890245723 0.6517765035 1 1 1.0
277 4 41.7500000000 -14.0181889018 0.3899925740 1 1 1.0
278 2 41.3600000000 -13.9469055376 0.0201257492 1 1 1.0
279 3 40.9700000000 -14.1010501318 -0.3235633985 1 1 1.0
280 3 40.5800000000 -14.4246686488 -0.5163167165 1 1 1.0
281 1 40.1900000000 -14.8002885162 -0.4881653158 1 1 1.0
282 3 39.8000000000 -15.0915608239 -0.2493280722 1 1 1.0
283 1 39.4100000000 -15.1927545785 0.1134977954 1 1 1.0
284 3 39.0200000000 -15.0671367439 0.4686075613 1 1 1.0
285 3 38.6300000000 -14.7603062257 0.6870974220 1 1 1.0
286 3 38.2400000000 -14.3836416019 0.6896561989 1 1 1.0
287 4 37.8500000000 -14.0738710262 0.4753550637 1 1 1.0
288 2 37.4600000000 -13.9434403089 0.1219846997 1 1 1.0
289 2 37.0700000000 -14.0396954179 -0.2421824874 1 1 1.0
290 3 36.6800000000 -14.3276960309 -0.4849548768 1 1 1.0
291 3 36.2900000000 -14.7028987702 -0.5182068033 1 1 1.0
292 3 35.9000000000 -15.0291061418 -0.3298679151 1 1 1.0
293 3 35.5100000000 -15.1879058268 0.0116953239 1 1 1.0
294 2 35.1200000000 -15.1216540053 0.3824964596 1 1 1.0
295 3 34.7300000000 -14.8543998941 0.6479357676 1 1 1.0
296 2 34.3400000000 -14.4831559517 0.7116595575 1 1 1.0
297 2 33.9500000000 -14.1426826403 0.5505362805 1 1 1.0
298 1 33.5600000000 -13.9565707733 0.2230532136 1 1 1.0
299 4 33.1700000000 -13.9923784124 -0.1519142505 1 1 1.0
300 4 32.7800000000 -14.2371074898 -0.4382540221 1 1 1.0
301 3 32.3900000000 -14.6019220681 -0.5320256042 1 1 1.0
302 3 32.0000000000 -14.9543955255 -0.3991901873 1 1 1.0
303 1 31.6100000000 -15.1665810309 -0.0879666382 1 1 1.0
304 1 31.2200000000 -15.1614558680 0.2886718076 1 1 1.0
305 3 30.8300000000 -14.9408804561 0.5940064990 1 1 1.0
306 4 30.4400000000 -14.5849230227 0.7172018388 1 1 1.0
307 3 30.0500000000 -14.2227950719 0.6135382798 1 1 1.0
308 3 29.6600000000 -13.9859479879 0.3206453899 1 1 1.0
309 2 29.2700000000 -13.9603565673 -0.0551575709 1 1 1.0
310 2 28.8800000000 -14.1553104208 -0.3774552301 1 1 1.0
311 2 28.4900000000 -14.5000418713 -0.5292544829 1 1 1.0
312 3 28.1000000000 -14.8694144136 -0.4554526457 1 1 1.0
313 3 27.7100000000 -15.1293468981 -0.1828395689 1 1 1.0
314 4 27.3200000000 -15.1854845955 0.1896270002 1 1 1.0
315 1 26.9300000000 -15.0174496862 0.5267427895 1 1 1.0
316 1 26.5400000000 -14.6862383494 0.7061357564 1 1 1.0
317 1 26.1500000000 -14.3120793289 0.6626867799 1 1 1.0
318 2 25.7600000000 -14.0307912517 0.4121677112 1 1 1.0
319 1 25.3700000000 -13.9444808647 0.0455162374 1 1 1.0
320 3 24.9800000000 -14.0844785853 -0.3041742320 1 1 1.0
321 3 24.5900000000 -14.3999656515 -0.5099670823 1 1 1.0
322 4 24.2000000000 -14.7764211836 -0.4971601124 1 1 1.0
323 4 23.8100000000 -15.0771929277 -0.2704022149 1 1 1.0
324 4 23.4200000000 -15.1931016230 0.0879941586 1 1 1.0
325 4 23.0300000000 -15.0820727529 0.4479321757 1 1 1.0
326 3 22.6400000000 -14.7844094717 0.6787553920 1 1 1.0
327 3 22.2500000000 -14.4081626773 0.6966756570 1 1 1.0
328 2 21.8600000000 -14.0899088526 0.4951879670 1 1 1.0
329 1 21.4700000000 -13.9451732024 0.1474317626 1 1 1.0
330 4 21.0800000000 -14.0264943431 -0.2203584741 1 1 1.0
331 3 20.6900000000 -14.3043529393 -0.4746759660 1 1 1.0
332 4 20.3000000000 -14.6778871356 -0.5232042094 1 1 1.0
333 1 19.9100000000 -15.0115051142 -0.3483275944 1 1 1.0
334 3 19.5200000000 -15.1841045276 -0.0135258192 1 1 1.0
335 1 19.5200000000 -16.7441045276 -0.0135258192 1 1 1.0
336 4 19.9100000000 -16.7951767603 0.3596690538 1 1 1.0
337 4 20.3000000000 -17.0513815684 0.6357883803 1 1 1.0
338 2 20.6900000000 -17.4197173580 0.7146016547 1 1 1.0
339 1 21.0800000000 -17.7664793179 0.5674998896 1 1 1.0
340 3 21.4700000000 -17.9657938738 0.2478805942 1 1 1.0
341 3 21.8600000000 -17.9453104265 -0.1282353647 1 1 1.0
342 2 22.2500000000 -17.7124644072 -0.4243189972 1 1 1.0
343 1 22.6400000000 -17.3517782381 -0.5328928133 1 1 1.0
344 3 23.0300000000 -16.9941799405 -0.4145448361 1 1 1.0
345 3 23.4200000000 -16.7694766476 -0.1122350342 1 1 1.0
346 2 23.8100000000 -16.7592349956 0.2642990210 1 1 1.0
347 3 24.2000000000 -16.9671726741 0.5783765719 1 1 1.0
348 1 24.5900000000 -17.3178089159 0.7159883887 1 1 1.0
349 2 24.9800000000 -17.6838637935 0.6271817857 1 1 1.0
350 3 25.3700000000 -17.9324604601 0.3441932992 1 1 1.0
351 3 25.7600000000 -17.9733590549 -0.0302530803 1 1 1.0
352 2 26.1500000000 -17.7917135079 -0.3602344153 1 1 1.0
353 3 26.5400000000 -17.4534606200 -0.5259684490 1 1 1.0
354 3 26.9300000000 -17.0813851972 -0.4672942134 1 1 1.0
355 2 27.3200000000 -16.8105495267 -0.2055102839 1 1 1.0
356 2 27.7100000000 -16.7392661625 0.1643565409 1 1 1.0
357 1 28.1000000000 -16.8934107567 0.5080456886 1 1 1.0
358 1 28.4900000000 -17.2170292737 0.7007990066 1 1 1.0
359 4 28.8800000000 -17.5926491411 0.6726476059 1 1 1.0
360 3 29.2700000000 -17.8839214488 0.4338103622 1 1 1.0
361 2 29.6600000000 -17.9851152034 0.0709844947 1 1 1.0
362 1 30.0500000000 -17.8594973688 -0.2841252712 1 1 1.0
363 1 30.4400000000 -17.5526668506 -0.5026151319 1 1 1.0
364 4 30.8300000000 -17.1760022268 -0.5051739089 1 1 1.0
365 1 31.2200000000 -16.8662316511 -0.2908727736 1 1 1.0
366 4 31.6100000000 -16.7358009338 0.0624975904 1 1 1.0
367 4 32.0000000000 -16.8320560428 0.4266647775 1 1 1.0
368 3 32.3900000000 -17.1200566558 0.6694371669 1 1 1.0
369 4 32.7800000000 -17.4952593950 0.7026890934 1 1 1.0
370 3 33.1700000000 -17.8214667667 0.5143502052 1 1 1.0
371 4 33.5600000000 -17.9802664517 0.1727869662 1 1 1.0
372 1 33.9500000000 -17.9140146302 -0.1980141696 1 1 1.0
373 1 34.3400000000 -17.6467605190 -0.4634534775 1 1 1.0
374 4 34.7300000000 -17.2755165766 -0.5271772674 1 1 1.0
375 1 35.1200000000 -16.9350432652 -0.3660539904 1 1 1.0
376 2 35.5100000000 -16.7489313982 -0.0385709236 1 1 1.0
377 4 35.9000000000 -16.7847390373 0.3363965405 1 1 1.0
378 3 36.2900000000 -17.0294681147 0.6227363122 1 1 1.0
379 4 36.6800000000 -17.3942826930 0.7165078942 1 1 1.0
380 3 37.0700000000 -17.7467561504 0.5836724774 1 1 1.0
381 2 37.4600000000 -17.9589416557 0.2724489283 1 1 1.0
382 4 37.8500000000 -17.9538164929 -0.1041895175 1 1 1.0
383 2 38.2400000000 -17.7332410810 -0.4095242090 1 1 1.0
384 4 38.6300000000 -17.3772836475 -0.5327195487 1 1 1.0
385 2 39.0200000000 -17.0151556968 -0.4290559897 1 1 1.0
386 3 39.4100000000 -16.7783086128 -0.1361630998 1 1 1.0
387 1 39.8000000000 -16.7527171922 0.2396398610 1 1 1.0
388 3 40.1900000000 -16.9476710456 0.5619375202 1 1 1.0
389 4 40.5800000000 -17.2924024962 0.7137367730 1 1 1.0
390 4 40.9700000000 -17.6617750385 0.6399349358 1 1 1.0
391 3 41.3600000000 -17.9217075230 0.3673218590 1 1 1.0
392 2 41.7500000000 -17.9778452204 -0.0051447101 1 1 1.0
393 4 42.1400000000 -17.8098103110 -0.3422604994 1 1 1.0
394 1 42.5300000000 -17.4785989743 -0.5216534663 1 1 1.0
395 1 42.9200000000 -17.1044399538 -0.4782044898 1 1 1.0
396 3 43.3100000000 -16.8231518766 -0.2276854212 1 1 1.0
397 2 43.7000000000 -16.7368414896 0.1389660527 1 1 1.0
398 1 44.0900000000 -16.8768392102 0.4886565221 1 1 1.0
399 2 44.4800000000 -17.1923262763 0.6944493724 1 1 1.0
400 3 44.8700000000 -17.5687818085 0.6816424025 1 1 1.0
401 4 45.2600000000 -17.8695535526 0.4548845050 1 1 1.0
402 2 45.6500000000 -17.9854622478 0.0964881315 1 1 1.0
403 3 46.0400000000 -17.8744333778 -0.2634498856 1 1 1.0
404 3 46.4300000000 -17.5767700966 -0.4942731019 1 1 1.0
405 2 46.8200000000 -17.2005233022 -0.5121933669 1 1 1.0
406 4 47.2100000000 -16.8822694775 -0.3107056769 1 1 1.0
407 4 47.6000000000 -16.7375338272 0.0370505275 1 1 1.0
408 3 47.9900000000 -16.8188549680 0.4048407642 1 1 1.0
409 1 48.3800000000 -17.0967135642 0.6591582560 1 1 1.0
410 2 48.7700000000 -17.4702477604 0.7076864995 1 1 1.0
411 2 49.1600000000 -17.8038657391 0.5328098844 1 1 1.0
412 2 49.5500000000 -17.9764651525 0.1980081093 1 1 1.0
413 3 49.5500000000 -19.5364651525 0.1980081093 1 1 1.0
414 2 49.1600000000 -19.5875373851 -0.1751867637 1 1 1.0
415 3 48.7700000000 -19.8437421932 -0.4513060902 1 1 1.0
416 4 48.3800000000 -20.2120779829 -0.5301193646 1 1 1.0
417 2 47.9900000000 -20.5588399428 -0.3830175995 1 1 1.0
418 4 47.6000000000 -20.7581544987 -0.0633983041 1 1 1.0
419 2 47.2100000000 -20.7376710514 0.3127176548 1 1 1.0
420 3 46.8200000000 -20.5048250321 0.6088012873 1 1 1.0
421 2 46.4300000000 -20.1441388630 0.7173751034 1 1 1.0
422 1 46.0400000000 -19.7865405654 0.5990271262 1 1 1.0
423 1 45.6500000000 -19.5618372724 0.2967173243 1 1 1.0
424 4 45.2600000000 -19.5515956205 -0.0798167309 1 1 1.0
425 1 44.8700000000 -19.7595332990 -0.3938942818 1 1 1.0
426 2 44.4800000000 -20.1101695407 -0.5315060987 1 1 1.0
427 2 44.0900000000 -20.4762244183 -0.4426994956 1 1 1.0
428 3 43.7000000000 -20.7248210849 -0.1597110091 1 1 1.0
429 4 43.3100000000 -20.7657196798 0.2147353704 1 1 1.0
430 2 42.9200000000 -20.5840741328 0.5447167053 1 1 1.0
431 3 42.5300000000 -20.2458212449 0.7104507391 1 1 1.0
432 4 42.1400000000 -19.8737458221 0.6517765035 1 1 1.0
433 3 41.7500000000 -19.6029101516 0.3899925740 1 1 1.0
434 2 41.3600000000 -19.5316267874 0.0201257492 1 1 1.0
435 3 40.9700000000 -19.6857713815 -0.3235633985 1 1 1.0
436 1 40.5800000000 -20.0093898986 -0.5163167165 1 1 1.0
437 3 40.1900000000 -20.3850097660 -0.4881653158 1 1 1.0
438 2 39.8000000000 -20.6762820736 -0.2493280722 1 1 1.0
439 1 39.4100000000 -20.7774758283 0.1134977954 1 1 1.0
440 1 39.0200000000 -20.6518579937 0.4686075613 1 1 1.0
441 2 38.6300000000 -20.3450274754 0.6870974220 1 1 1.0
442 1 38.2400000000 -19.9683628517 0.6896561989 1 1 1.0
443 2 37.8500000000 -19.6585922759 0.4753550637 1 1 1.0
444 2 37.4600000000 -19.5281615587 0.1219846997 1 1 1.0
445 1 37.0700000000 -19.6244166677 -0.2421824874 1 1 1.0
446 4 36.6800000000 -19.9124172807 -0.4849548768 1 1 1.0
447 4 36.2900000000 -20.2876200199 -0.5182068033 1 1 1.0
448 2 35.9000000000 -20.6138273916 -0.3298679151 1 1 1.0
449 1 35.5100000000 -20.7726270766 0.0116953239 1 1 1.0
450 4 35.1200000000 -20.7063752551 0.3824964596 1 1 1.0
451 4 34.7300000000 -20.4391211439 0.6479357676 1 1 1.0
452 3 34.3400000000 -20.0678772015 0.7116595575 1 1 1.0
453 2 33.9500000000 -19.7274038901 0.5505362805 1 1 1.0
454 2 33.5600000000 -19.5412920230 0.2230532136 1 1 1.0
455 3 33.1700000000 -19.5770996622 -0.1519142505 1 1 1.0
456 2 32.7800000000 -19.8218287396 -0.4382540221 1 1 1.0
457 1 32.3900000000 -20.1866433179 -0.5320256042 1 1 1.0
458 4 32.0000000000 -20.5391167753 -0.3991901873 1 1 1.0
459 4 31.6100000000 -20.7513022806 -0.0879666382 1 1 1.0
460 3 31.2200000000 -20.7461771178 0.2886718076 1 1 1.0
461 2 30.8300000000 -20.5256017059 0.5940064990 1 1 1.0
462 2 30.4400000000 -20.1696442724 0.7172018388 1 1 1.0
463 4 30.0500000000 -19.8075163217 0.6135382798 1 1 1.0
464 4 29.6600000000 -19.5706692376 0.3206453899 1 1 1.0
465 1 29.2700000000 -19.5450778170 -0.0551575709 1 1 1.0
466 3 28.8800000000 -19.7400316705 -0.3774552301 1 1 1.0
467 1 28.4900000000 -20.0847631211 -0.5292544829 1 1 1.0
468 3 28.1000000000 -20.4541356634 -0.4554526457 1 1 1.0
469 4 27.7100000000 -20.7140681479 -0.1828395689 1 1 1.0
470 2 27.3200000000 -20.7702058452 0.1896270002 1 1 1.0
471 2 26.9300000000 -20.6021709359 0.5267427895 1 1 1.0
472 1 26.5400000000 -20.2709595991 0.7061357564 1 1 1.0
473 1 26.1500000000 -19.8968005787 0.6626867799 1 1 1.0
474 2 25.7600000000 -19.6155125015 0.4121677112 1 1 1.0
475 4 25.3700000000 -19.5292021145 0.0455162374 1 1 1.0
476 3 24.9800000000 -19.6691998350 -0.3041742320 1 1 1.0
477 3 24.5900000000 -19.9846869012 -0.5099670823 1 1 1.0
478 1 24.2000000000 -20.3611424334 -0.4971601124 1 1 1.0
479 3 23.8100000000 -20.6619141775 -0.2704022149 1 1 1.0
480 3 23.4200000000 -20.7778228727 0.0879941586 1 1 1.0
481 4 23.0300000000 -20.6667940027 0.4479321757 1 1 1.0
482 2 22.6400000000 -20.3691307215 0.6787553920 1 1 1.0
483 1 22.2500000000 -19.9928839271 0.6966756570 1 1 1.0
484 2 21.8600000000 -19.6746301024 0.4951879670 1 1 1.0
485 2 21.4700000000 -19.5298944521 0.1474317626 1 1 1.0
486 3 21.0800000000 -19.6112155929 -0.2203584741 1 1 1.0
487 4 20.6900000000 -19.8890741891 -0.4746759660 1 1 1.0
488 1 20.3000000000 -20.2626083853 -0.5232042094 1 1 1.0
489 1 19.9100000000 -20.5962263640 -0.3483275944 1 1 1.0
490 4 19.5200000000 -20.7688257773 -0.0135258192 1 1 1.0
491 2 19.5200000000 -22.3288257773 -0.0135258192 1 1 1.0
492 3 19.9100000000 -22.3798980100 0.3596690538 1 1 1.0
493 1 20.3000000000 -22.6361028181 0.6357883803 1 1 1.0
494 2 20.6900000000 -23.0044386078 0.7146016547 1 1 1.0
495 1 21.0800000000 -23.3512005677 0.5674998896 1 1 1.0
496 2 21.4700000000 -23.5505151236 0.2478805942 1 1 1.0
497 3 21.8600000000 -23.5300316762 -0.1282353647 1 1 1.0
498 1 22.2500000000 -23.2971856570 -0.4243189972 1 1 1.0
499 4 22.6400000000 -22.9364994878 -0.5328928133 1 1 1.0
500 4 23.0300000000 -22.5789011902 -0.4145448361 1 1 1.0
501 1 23.4200000000 -22.3541978973 -0.1122350342 1 1 1.0
502 2 23.8100000000 -22.3439562453 0.2642990210 1 1 1.0
503 4 24.2000000000 -22.5518939239 0.5783765719 1 1 1.0
504 2 24.5900000000 -22.9025301656 0.7159883887 1 1 1.0
505 4 24.9800000000 -23.2685850432 0.6271817857 1 1 1.0
506 3 25.3700000000 -23.5171817098 0.3441932992 1 1 1.0
507 3 25.7600000000 -23.5580803046 -0.0302530803 1 1 1.0
508 4 26.1500000000 -23.3764347577 -0.3602344153 1 1 1.0
509 1 26.5400000000 -23.0381818697 -0.5259684490 1 1 1.0
510 4 26.9300000000 -22.6661064470 -0.4672942134 1 1 1.0
511 1 27.3200000000 -22.3952707765 -0.2055102839 1 1 1.0
512 1 27.7100000000 -22.3239874122 0.1643565409 1 1 1.0
513 3 28.1000000000 -22.4781320064 0.5080456886 1 1 1.0
514 2 28.4900000000 -22.8017505234 0.7007990066 1 1 1.0
515 3 28.8800000000 -23.1773703908 0.6726476059 1 1 1.0
516 1 29.2700000000 -23.4686426985 0.4338103622 1 1 1.0
517 1 29.6600000000 -23.5698364531 0.0709844947 1 1 1.0
518 2 30.0500000000 -23.4442186186 -0.2841252712 1 1 1.0
519 3 30.4400000000 -23.1373881003 -0.5026151319 1 1 1.0
520 1 30.8300000000 -22.7607234765 -0.5051739089 1 1 1.0
521 2 31.2200000000 -22.4509529008 -0.2908727736 1 1 1.0
522 3 31.6100000000 -22.3205221836 0.0624975904 1 1 1.0
523 3 32.0000000000 -22.4167772925 0.4266647775 1 1 1.0
524 1 32.3900000000 -22.7047779056 0.6694371669 1 1 1.0
525 1 32.7800000000 -23.0799806448 0.7026890934 1 1 1.0
526 1 33.1700000000 -23.4061880165 0.5143502052 1 1 1.0
527 3 33.5600000000 -23.5649877015 0.1727869662 1 1 1.0
528 2 33.9500000000 -23.4987358799 -0.1980141696 1 1 1.0
529 3 34.3400000000 -23.2314817687 -0.4634534775 1 1 1.0
530 3 34.7300000000 -22.8602378264 -0.5271772674 1 1 1.0
531 3 35.1200000000 -22.5197645150 -0.3660539904 1 1 1.0
532 2 35.5100000000 -22.3336526479 -0.0385709236 1 1 1.0
533 3 35.9000000000 -22.3694602871 0.3363965405 1 1 1.0