# LAMMPS data file
5269 atoms
5269 ellipsoids
5268 bonds

4 atom types
1 bond types

0.0 50.0 xlo xhi
0.0 50.0 ylo yhi
0.0 50.0 zlo zhi

Masses

1 3.1575
2 3.1575
3 3.1575
4 3.1575

Atoms

1 2 0.0000000000 0.0000000000 0.0000000000 1 1 1.0
2 4 0.3900000000 -0.0476185307 0.3699355351 1 1 1.0
3 3 0.7800000000 -0.2965529878 0.6476970526 1 1 1.0
4 3 1.1700000000 -0.6590818649 0.7354047369 1 1 1.0
5 4 1.5600000000 -1.0074543488 0.6021514556 1 1 1.0
6 4 1.9500000000 -1.2189081694 0.2948940614 1 1 1.0
7 2 2.3400000000 -1.2189295452 -0.0780936383 1 1 1.0
8 4 2.7300000000 -1.0075109437 -0.3853752672 1 1 1.0
9 4 3.1200000000 -0.6591537354 -0.5186684778 1 1 1.0
10 4 3.5100000000 -0.2966148078 -0.4310023469 1 1 1.0
11 1 3.9000000000 -0.0476485154 -0.1532693639 1 1 1.0
12 2 4.2900000000 0.0000124168 0.2166607107 1 1 1.0
13 3 4.6800000000 -0.1704271501 0.5484289711 1 1 1.0
14 4 5.0700000000 -0.4989063641 0.7251242754 1 1 1.0
15 3 5.4600000000 -0.8696731036 0.6844813251 1 1 1.0
16 3 5.8500000000 -1.1520736322 0.4408222066 1 1 1.0
17 1 6.2400000000 -1.2465934026 0.0800094608 1 1 1.0
18 2 6.6300000000 -1.1199247852 -0.2708108436 1 1 1.0
19 4 7.0200000000 -0.8167042763 -0.4880138535 1 1 1.0
20 3 7.4100000000 -0.4437831337 -0.4950598427 1 1 1.0
21 2 7.8000000000 -0.1325742797 -0.2894658892 1 1 1.0
22 4 8.1900000000 0.0072560314 0.0563191721 1 1 1.0
23 1 8.5800000000 -0.0735667192 0.4204448476 1 1 1.0
24 2 8.9700000000 -0.3465615669 0.6745976317 1 1 1.0
25 3 9.3600000000 -0.7155284131 0.7292171423 1 1 1.0
26 4 9.7500000000 -1.0504477821 0.5650561212 1 1 1.0
27 4 10.1400000000 -1.2332981193 0.2399629365 1 1 1.0
28 2 10.5300000000 -1.1996451665 -0.1315034864 1 1 1.0
29 4 10.9200000000 -0.9613478193 -0.4184428509 1 1 1.0
30 4 11.3100000000 -0.6023791949 -0.5197411786 1 1 1.0
31 1 11.7000000000 -0.2492355158 -0.3997021579 1 1 1.0
32 2 12.0900000000 -0.0263603642 -0.1006260950 1 1 1.0
33 2 12.4800000000 -0.0122922611 0.2720962051 1 1 1.0
34 4 12.8700000000 -0.2119886367 0.5871218900 1 1 1.0
35 4 13.2600000000 -0.5550788917 0.7334396999 1 1 1.0
36 2 13.6500000000 -0.9206621496 0.6594889997 1 1 1.0
37 3 14.0400000000 -1.1799112705 0.3913291260 1 1 1.0
38 2 14.4300000000 -1.2414699845 0.0234563908 1 1 1.0
39 3 14.8200000000 -1.0836457416 -0.3144952817 1 1 1.0
40 3 15.2100000000 -0.7620539055 -0.5034357896 1 1 1.0
41 2 15.6000000000 -0.3900195686 -0.4767847720 1 1 1.0
42 1 15.9900000000 -0.0986431535 -0.2439337268 1 1 1.0
43 2 16.3800000000 0.0093977981 0.1130634403 1 1 1.0
44 1 16.7700000000 -0.1039690447 0.4684052244 1 1 1.0
45 1 17.1600000000 -0.3987945711 0.6968734576 1 1 1.0
46 3 17.5500000000 -0.7711858139 0.7179586843 1 1 1.0
47 2 17.9400000000 -1.0899165814 0.5242307244 1 1 1.0
48 3 18.3300000000 -1.2426699872 0.1839569794 1 1 1.0
49 4 18.7200000000 -1.1756175696 -0.1829541786 1 1 1.0
50 2 19.1100000000 -0.9123877936 -0.4472076736 1 1 1.0
51 4 19.5000000000 -0.5457396641 -0.5156837544 1 1 1.0
52 4 19.8900000000 -0.2048755688 -0.3642522743 1 1 1.0
53 4 20.2800000000 -0.0099119126 -0.0462758643 1 1 1.0
54 1 20.6700000000 -0.0295515411 0.3261944158 1 1 1.0
55 1 21.0600000000 -0.2568736858 0.6219045223 1 1 1.0
56 2 21.4500000000 -0.6117727588 0.7366497728 1 1 1.0
57 3 21.8400000000 -0.9691865984 0.6299953222 1 1 1.0
58 3 22.2300000000 -1.2031668692 0.3395249150 1 1 1.0
59 4 22.6200000000 -1.2312617400 -0.0324031732 1 1 1.0
60 2 23.0100000000 -1.0435709164 -0.3547259606 1 1 1.0
61 1 23.4000000000 -0.7062343857 -0.5138607765 1 1 1.0
62 4 23.7900000000 -0.3381254812 -0.4537304269 1 1 1.0
63 1 24.1800000000 -0.0689613502 -0.1955241235 1 1 1.0
64 4 24.5700000000 0.0064078071 0.1697693403 1 1 1.0
65 3 24.9600000000 -0.1385771933 0.5134249444 1 1 1.0
66 1 25.3500000000 -0.4528253822 0.7143425901 1 1 1.0
67 4 25.7400000000 -0.8255994800 0.7017213173 1 1 1.0
68 4 26.1300000000 -1.1255383814 0.4800087106 1 1 1.0
69 1 26.5200000000 -1.2469472276 0.1273336241 1 1 1.0
70 4 26.9100000000 -1.1470430024 -0.2320254864 1 1 1.0
71 3 27.3000000000 -0.8610307523 -0.4714347957 1 1 1.0
72 4 27.6900000000 -0.4896977519 -0.5065293445 1 1 1.0
73 2 28.0800000000 -0.1638972812 -0.3249422364 1 1 1.0
74 1 28.4700000000 0.0015624953 0.0093374174 1 1 1.0
75 4 28.8600000000 -0.0516244564 0.3785134902 1 1 1.0
76 3 29.2500000000 -0.3047156944 0.6524927773 1 1 1.0
77 1 29.6400000000 -0.6685249128 0.7347282755 1 1 1.0
78 1 30.0300000000 -1.0148501218 0.5962411851 1 1 1.0
79 4 30.4200000000 -1.2216504859 0.2858326898 1 1 1.0
80 1 30.8100000000 -1.2160520459 -0.0871129927 1 1 1.0
81 2 31.2000000000 -1.0000276248 -0.3911742924 1 1 1.0
82 4 31.5900000000 -0.6497016283 -0.5192036671 1 1 1.0
83 2 31.9800000000 -0.2885247213 -0.4260851061 1 1 1.0
84 1 32.3700000000 -0.0437712987 -0.1446324695 1 1 1.0
85 3 32.7600000000 -0.0016895208 0.2259737211 1 1 1.0
86 2 33.1500000000 -0.1771084996 0.5551363047 1 1 1.0
87 2 33.5400000000 -0.5082126983 0.7268623486 1 1 1.0
88 3 33.9300000000 -0.8783249825 0.6806376618 1 1 1.0
89 3 34.3200000000 -1.1570222377 0.4327512675 1 1 1.0
90 1 34.7100000000 -1.2460949057 0.0705553476 1 1 1.0
91 2 35.1000000000 -1.1141548503 -0.2783166151 1 1 1.0
92 1 35.4900000000 -0.8076961590 -0.4909263398 1 1 1.0
93 1 35.8800000000 -0.4347111861 -0.4923527187 1 1 1.0
94 4 36.2700000000 -0.1266353469 -0.2820931128 1 1 1.0
95 2 36.6600000000 0.0079691409 0.0657595233 1 1 1.0
96 2 37.0500000000 -0.0783307242 0.4286261074 1 1 1.0
97 3 37.4400000000 -0.3551239084 0.6786368226 1 1 1.0
98 3 37.8300000000 -0.7248718250 0.7276909021 1 1 1.0
99 4 38.2200000000 -1.0572797585 0.5585022785 1 1 1.0
100 3 38.6100000000 -1.2352111539 0.2306909866 1 1 1.0
101 1 39.0000000000 -1.1959651290 -0.1402262199 1 1 1.0
102 3 39.3900000000 -0.9533715106 -0.4235425817 1 1 1.0
103 1 39.7800000000 -0.5929173701 -0.5194208230 1 1 1.0
104 1 40.1700000000 -0.2416224082 -0.3940746054 1 1 1.0
105 2 40.5600000000 -0.0232787412 -0.0916744273 1 1 1.0
106 2 40.9500000000 -0.0148280496 0.2812175280 1 1 1.0
107 1 41.3400000000 -0.2192482553 0.5931986237 1 1 1.0
108 2 41.7300000000 -0.5645041382 0.7343304766 1 1 1.0
109 3 42.1200000000 -0.9289316806 0.6548799203 1 1 1.0
110 2 42.5100000000 -1.1841110028 0.3828443747 1 1 1.0
111 2 42.9000000000 -1.2401199829 0.0140858918 1 1 1.0
112 1 43.2900000000 -1.0772217305 -0.3214494773 1 1 1.0
113 3 43.6800000000 -0.7528196291 -0.5055231070 1 1 1.0
114 4 44.0700000000 -0.3812290748 -0.4732696657 1 1 1.0
115 4 44.4600000000 -0.0933941064 -0.2360548779 1 1 1.0
116 2 44.8500000000 0.0092556974 0.1225296203 1 1 1.0
117 2 45.2400000000 -0.1094522186 0.4761229675 1 1 1.0
118 4 45.6300000000 -0.4076866137 0.7001231241 1 1 1.0
119 2 46.0200000000 -0.7803532765 0.7155951308 1 1 1.0
120 4 46.4100000000 -1.0961289604 0.5170868388 1 1 1.0
121 3 46.8000000000 -1.2437381151 0.1745501809 1 1 1.0
122 4 47.1900000000 -1.1711650509 -0.1913090474 1 1 1.0
123 2 47.5800000000 -0.9039836424 -0.4515664575 1 1 1.0
124 4 47.9700000000 -0.5363454020 -0.5145104703 1 1 1.0
125 3 48.3600000000 -0.1978016208 -0.3579603736 1 1 1.0
126 3 48.7500000000 -0.0076510527 -0.0370825370 1 1 1.0
127 4 49.1400000000 -0.0329004693 0.3350495518 1 1 1.0
128 4 49.5300000000 -0.2646522800 0.6273010237 1 1 1.0
129 3 49.9200000000 -0.6212399360 0.7366859775 1 1 1.0
130 3 50.3100000000 -0.9770062393 0.6246584719 1 1 1.0
131 1 50.7000000000 -1.2065834265 0.3306956517 1 1 1.0
132 4 51.0900000000 -1.2290712600 -0.0416135235 1 1 1.0
133 1 51.4800000000 -1.0365452979 -0.3610717813 1 1 1.0
134 2 51.8700000000 -0.6968493721 -0.5151058767 1 1 1.0
135 2 52.2600000000 -0.3296882383 -0.4494360484 1 1 1.0
136 4 52.6500000000 -0.0644450609 -0.1872035534 1 1 1.0
137 3 53.0400000000 0.0054116568 0.1791840331 1 1 1.0
138 1 53.4300000000 -0.1447347518 0.5206161355 1 1 1.0
139 4 53.8200000000 -0.4619744993 0.7167761903 1 1 1.0
140 3 54.2100000000 -0.8345161171 0.6985397552 1 1 1.0
141 2 54.6000000000 -1.1310804229 0.4723331304 1 1 1.0
142 1 54.9900000000 -1.2471617247 0.1178688079 1 1 1.0
143 2 55.3800000000 -1.1418543689 -0.2399442513 1 1 1.0
144 2 55.7700000000 -0.8522674002 -0.4750170318 1 1 1.0
145 1 56.1600000000 -0.4804477810 -0.5045127150 1 1 1.0
146 2 56.5500000000 -0.1574202699 -0.3180373772 1 1 1.0
147 1 56.9400000000 0.0029841261 0.0186973170 1 1 1.0
148 2 57.3300000000 -0.0557591715 0.3870301143 1 1 1.0
149 1 57.7200000000 -0.3129497318 0.6571649700 1 1 1.0
150 1 58.1100000000 -0.6779566967 0.7339096124 1 1 1.0
151 3 58.5000000000 -1.0221560050 0.5902201531 1 1 1.0
152 2 58.8900000000 -1.2242559632 0.2767310282 1 1 1.0
153 2 59.2800000000 -1.2130389785 -0.0960879678 1 1 1.0
154 4 59.6700000000 -0.9924577813 -0.3968599080 1 1 1.0
155 3 60.0600000000 -0.6402425305 -0.5195963806 1 1 1.0
156 4 60.4500000000 -0.2805096414 -0.4210465300 1 1 1.0
157 4 60.8400000000 -0.0400246544 -0.1359381373 1 1 1.0
158 2 61.2300000000 -0.0035315844 0.2352600313 1 1 1.0
159 1 61.6200000000 -0.1838901501 0.5617422090 1 1 1.0
160 3 62.0100000000 -0.5175441637 0.7284600058 1 1 1.0
161 3 62.4000000000 -0.8869179666 0.6766640767 1 1 1.0
162 4 62.7900000000 -1.1618486765 0.4246066837 1 1 1.0
163 2 63.1800000000 -1.2454540201 0.0611098185 1 1 1.0
164 3 63.5700000000 -1.1082724807 -0.2857345988 1 1 1.0
165 3 63.9600000000 -0.7986451816 -0.4937027700 1 1 1.0
166 2 64.3500000000 -0.4256810565 -0.4895092147 1 1 1.0
167 2 64.7400000000 -0.1208081740 -0.2746316913 1 1 1.0
168 1 65.1300000000 0.0085399315 0.0752095473 1 1 1.0
169 3 65.5200000000 -0.0832174557 0.4367346591 1 1 1.0
170 3 65.9100000000 -0.3637461366 0.6825465460 1 1 1.0
171 3 66.3000000000 -0.7341911804 0.7260240577 1 1 1.0
172 4 66.6900000000 -1.0640122125 0.5518462423 1 1 1.0
173 2 67.0800000000 -1.2369842707 0.2213912656 1 1 1.0
174 2 67.4700000000 -1.1921540836 -0.1488925160 1 1 1.0
175 4 67.8600000000 -0.9453192696 -0.4285215545 1 1 1.0
176 3 68.2500000000 -0.5834614462 -0.5189579422 1 1 1.0
177 1 68.6400000000 -0.2340949552 -0.3883329848 1 1 1.0
178 1 69.0300000000 -0.0203323430 -0.0826773449 1 1 1.0
179 4 69.4200000000 -0.0175009814 0.2902996088 1 1 1.0
180 1 69.8100000000 -0.2265986081 0.5991652868 1 1 1.0
181 4 70.2000000000 -0.5739417362 0.7350791418 1 1 1.0
182 1 70.5900000000 -0.9371308278 0.6501467670 1 1 1.0
183 4 70.9800000000 -1.1881824184 0.3742973091 1 1 1.0
184 4 71.3700000000 -1.2386289491 0.0047367970 1 1 1.0
185 3 71.7600000000 -1.0706936696 -0.3283060928 1 1 1.0
186 3 72.1500000000 -0.7435549512 -0.5074710545 1 1 1.0
187 1 72.5400000000 -0.3724925409 -0.4696225119 1 1 1.0
188 4 72.9300000000 -0.0882643659 -0.2280978359 1 1 1.0
189 3 73.3200000000 0.0089709857 0.1319925846 1 1 1.0
190 4 73.7100000000 -0.1150510535 0.4837572195 1 1 1.0
191 1 74.1000000000 -0.4166266098 0.7032384451 1 1 1.0
192 3 74.4900000000 -0.7894840868 0.7130937193 1 1 1.0
193 4 74.8800000000 -1.1022329972 0.5098501620 1 1 1.0
194 1 75.2700000000 -1.2446643893 0.1651283567 1 1 1.0
195 1 75.6600000000 -1.1665871547 -0.1995958816 1 1 1.0
196 4 76.0500000000 -0.8955147712 -0.4557981210 1 1 1.0
197 4 76.4400000000 -0.5269698842 -0.5131957760 1 1 1.0
198 2 76.8300000000 -0.1908232760 -0.3515626037 1 1 1.0
199 1 77.2200000000 -0.0055289656 -0.0278561887 1 1 1.0
200 2 77.6100000000 -0.0363824378 0.3438532244 1 1 1.0
201 1 78.0000000000 -0.2725113004 0.6325797123 1 1 1.0
202 1 78.3900000000 -0.6307065841 0.7365795358 1 1 1.0
203 2 78.7800000000 -0.9847445822 0.6192044088 1 1 1.0
204 4 79.1700000000 -1.2098665653 0.3218159132 1 1 1.0
205 2 79.5600000000 -1.2267422561 -0.0507898243 1 1 1.0
206 4 79.9500000000 -1.0294248643 -0.3673110265 1 1 1.0
207 1 80.3400000000 -0.6874466639 -0.5162094313 1 1 1.0
208 4 80.7300000000 -0.3213166566 -0.4450150331 1 1 1.0
209 3 81.1200000000 -0.0600546504 -0.1788158808 1 1 1.0
210 1 81.5100000000 0.0042737683 0.1885826482 1 1 1.0
211 1 81.9000000000 -0.1509999611 0.5277137342 1 1 1.0
212 1 82.2900000000 -0.4711592451 0.7190716643 1 1 1.0
213 3 82.6800000000 -0.8433838055 0.6952242071 1 1 1.0
214 1 83.0700000000 -1.1365061872 0.4645749195 1 1 1.0
215 2 83.4600000000 -1.2472335909 0.1084018343 1 1 1.0
216 4 83.8500000000 -1.1365470122 -0.2477839401 1 1 1.0
217 3 84.2400000000 -0.8434510693 -0.4784668238 1 1 1.0
218 4 84.6300000000 -0.4712292448 -0.5023569450 1 1 1.0
219 1 85.0200000000 -0.1510480295 -0.3110357125 1 1 1.0
220 2 85.4100000000 0.0042645698 0.0280775739 1 1 1.0
221 2 85.8000000000 -0.0600217375 0.3954834738 1 1 1.0
222 2 86.1900000000 -0.3212532304 0.6617125700 1 1 1.0
223 2 86.5800000000 -0.6873750750 0.7329489333 1 1 1.0
224 1 86.9700000000 -1.0293703399 0.5840897268 1 1 1.0
225 3 87.3600000000 -1.2267240098 0.2675911430 1 1 1.0
226 1 87.7500000000 -1.2098910269 -0.1050165263 1 1 1.0
227 4 88.1400000000 -0.9848031318 -0.4024308232 1 1 1.0
228 2 88.5300000000 -0.6307785894 -0.5198465291 1 1 1.0
229 3 88.9200000000 -0.2725713877 -0.4158877624 1 1 1.0
230 1 89.3100000000 -0.0364094331 -0.1271883413 1 1 1.0
231 3 89.7000000000 -0.0055133560 0.2445175330 1 1 1.0
232 4 90.0900000000 -0.1907705621 0.5682451841 1 1 1.0
233 3 90.4800000000 -0.5268986418 0.7299168842 1 1 1.0
234 3 90.8700000000 -0.8954501053 0.6725614721 1 1 1.0
235 4 91.2600000000 -1.1665518527 0.4163903045 1 1 1.0
236 4 91.6500000000 -1.2446708913 0.0516750177 1 1 1.0
237 1 92.0400000000 -1.1022790119 -0.2930631108 1 1 1.0
238 1 92.4300000000 -0.7895533992 -0.4963425138 1 1 1.0
239 3 92.8200000000 -0.4166947951 -0.4865299764 1 1 1.0
240 4 93.2100000000 -0.1150940840 -0.2670833186 1 1 1.0
241 4 93.6000000000 0.0089682735 0.0846670987 1 1 1.0
242 4 93.9900000000 -0.0882258041 0.4447686619 1 1 1.0
243 1 94.3800000000 -0.3724262938 0.6863259143 1 1 1.0
244 3 94.7700000000 -0.7434843636 0.7242169876 1 1 1.0
245 3 95.1600000000 -1.0706436156 0.5450895236 1 1 1.0
246 3 95.5500000000 -1.2386170671 0.2120658845 1 1 1.0
247 2 95.9400000000 -1.1882128956 -0.1575004073 1 1 1.0
248 3 96.3300000000 -0.9371929243 -0.4333786387 1 1 1.0
249 3 96.7200000000 -0.5740135699 -0.5183526414 1 1 1.0
250 3 97.1100000000 -0.2266548658 -0.3824785996 1 1 1.0
251 4 97.5000000000 -0.0175218385 -0.0736368902 1 1 1.0
252 2 97.8900000000 -0.0203104497 0.2993403855 1 1 1.0
253 4 98.2800000000 -0.2340380264 0.6050205247 1 1 1.0
254 3 98.6700000000 -0.5833895430 0.7356855255 1 1 1.0
255 4 99.0600000000 -0.9452577297 0.6452906142 1 1 1.0
256 1 99.4500000000 -1.1921245930 0.3656898696 1 1 1.0
257 4 99.8400000000 -1.2369972215 -0.0045887711 1 1 1.0
258 2 100.2300000000 -1.0640630410 -0.3350635716 1 1 1.0
259 4 100.6200000000 -0.7342619753 -0.5092791897 1 1 1.0
260 1 101.0100000000 -0.3638119505 -0.4658441385 1 1 1.0
261 1 101.4000000000 -0.0832550966 -0.2200644072 1 1 1.0
262 1 101.7900000000 0.0085437277 0.1414501851 1 1 1.0
263 4 102.1800000000 -0.1207642783 0.4913062471 1 1 1.0
264 1 102.5700000000 -0.4256125297 0.7062187135 1 1 1.0
265 3 102.9600000000 -0.7985761717 0.7104550177 1 1 1.0
266 4 103.3500000000 -1.1082273059 0.5025223371 1 1 1.0
267 3 103.7400000000 -1.2454485995 0.1556936458 1 1 1.0
268 1 104.1300000000 -1.1618849202 -0.2078127999 1 1 1.0
269 4 104.5200000000 -0.8869831029 -0.4599017036 1 1 1.0
270 2 104.9100000000 -0.5176152392 -0.5117399697 1 1 1.0
271 4 105.3000000000 -0.1839421187 -0.3450604173 1 1 1.0
272 2 105.6900000000 -0.0035461330 -0.0185989143 1 1 1.0
273 1 106.0800000000 -0.0399966562 0.3526034347 1 1 1.0
274 3 106.4700000000 -0.2804489628 0.6377393897 1 1 1.0
275 3 106.8600000000 -0.6401705538 0.7363304721 1 1 1.0
276 1 107.2500000000 -0.9923998702 0.6136343710 1 1 1.0
277 1 107.6400000000 -1.2130155402 0.3128877156 1 1 1.0
278 1 108.0300000000 -1.2242752571 -0.0599299923 1 1 1.0
279 3 108.4200000000 -1.0222112322 -0.3734422797 1 1 1.0
280 1 108.8100000000 -0.6780283957 -0.5171711899 1 1 1.0
281 1 109.2000000000 -0.3130126368 -0.4404683849 1 1 1.0
282 1 109.5900000000 -0.0557911156 -0.1703630100 1 1 1.0
283 2 109.9800000000 0.0029943998 0.1979630517 1 1 1.0
284 3 110.3700000000 -0.1573713989 0.5347161292 1 1 1.0
285 1 110.7600000000 -0.4803775342 0.7212284910 1 1 1.0
286 4 111.1500000000 -0.8522005317 0.6917754257 1 1 1.0
287 3 111.5400000000 -1.1418144424 0.4567358390 1 1 1.0
288 3 111.9300000000 -1.2471628098 0.0989348524 1 1 1.0
289 1 112.3200000000 -1.1311221372 -0.2555427729 1 1 1.0
290 4 112.7100000000 -0.8345837611 -0.4817833883 1 1 1.0
291 3 113.1000000000 -0.4620442360 -0.5000625237 1 1 1.0
292 3 113.4900000000 -0.1447820067 -0.3039388320 1 1 1.0
293 1 113.8800000000 0.0054035356 0.0374760585 1 1 1.0
294 3 114.2700000000 -0.0644111865 0.4038716495 1 1 1.0
295 4 114.6600000000 -0.3296243053 0.6661345447 1 1 1.0
296 3 115.0500000000 -0.6967779097 0.7318464564 1 1 1.0
297 3 115.4400000000 -1.0364914886 0.5778512978 1 1 1.0
298 2 115.8300000000 -1.2290540655 0.2584151092 1 1 1.0
299 2 116.2200000000 -1.2066089060 -0.1138966410 1 1 1.0
300 1 116.6100000000 -0.9770654141 -0.4078857733 1 1 1.0
301 1 117.0000000000 -0.6213119537 -0.5199540558 1 1 1.0
302 2 117.3900000000 -0.2647117623 -0.4106099746 1 1 1.0
303 1 117.7800000000 -0.0329264555 -0.1183850679 1 1 1.0
304 2 118.1700000000 -0.0076343856 0.2537441244 1 1 1.0
305 4 118.5600000000 -0.1977481736 0.5746437538 1 1 1.0
306 2 118.9500000000 -0.5362740088 0.7312326532 1 1 1.0
307 1 119.3400000000 -0.9039194614 0.6683307792 1 1 1.0
308 2 119.7300000000 -1.1711306988 0.4081039950 1 1 1.0
309 1 120.1200000000 -1.2437456970 0.0422530874 1 1 1.0
310 4 120.5100000000 -1.0961758046 -0.3003004871 1 1 1.0
311 4 120.9000000000 -0.7804228757 -0.4988449719 1 1 1.0
312 2 121.2900000000 -0.4077544420 -0.4834156800 1 1 1.0
313 1 121.6800000000 -0.1094943741 -0.2594497084 1 1 1.0
314 2 122.0700000000 0.0092540699 0.0941300303 1 1 1.0
315 4 122.4600000000 -0.0933546326 0.4527262918 1 1 1.0
316 4 122.8500000000 -0.3811624096 0.6899740695 1 1 1.0
317 1 123.2400000000 -0.7527492647 0.7222701021 1 1 1.0
318 2 123.6300000000 -1.0771724624 0.5382336563 1 1 1.0
319 1 124.0200000000 -1.2401091725 0.2027169607 1 1 1.0
320 3 124.4100000000 -1.1841424596 -0.1660479395 1 1 1.0
321 1 124.8000000000 -0.9289943197 -0.4381127318 1 1 1.0
322 2 125.1900000000 -0.5645758862 -0.5176050580 1 1 1.0
323 3 125.5800000000 -0.2193038291 -0.3765127791 1 1 1.0
324 1 125.9700000000 -0.0148478657 -0.0645551159 1 1 1.0
325 1 126.3600000000 -0.0232558167 0.3083378056 1 1 1.0
326 2 126.7500000000 -0.2415648212 0.6107630081 1 1 1.0
327 1 127.1400000000 -0.5928454138 0.7361494900 1 1 1.0
328 1 127.5300000000 -0.9533105414 0.6403125645 1 1 1.0
329 3 127.9200000000 -1.1959366317 0.3570240104 1 1 1.0
330 4 128.3100000000 -1.2352251707 -0.0138886953 1 1 1.0
331 1 128.7000000000 -1.0573313500 -0.3417203795 1 1 1.0
332 2 129.0900000000 -0.7249428110 -0.5109471023 1 1 1.0
333 3 129.4800000000 -0.3551892743 -0.4619354034 1 1 1.0
334 3 129.8700000000 -0.0783674358 -0.2119564156 1 1 1.0
335 2 130.2600000000 0.0079740203 0.1509002744 1 1 1.0
336 1 130.6500000000 -0.1265905959 0.4987683365 1 1 1.0
337 2 131.0400000000 -0.4346423333 0.7090632524 1 1 1.0
338 1 131.4300000000 -0.8076274672 0.7076796249 1 1 1.0
339 3 131.8200000000 -1.1141105257 0.4951050276 1 1 1.0
340 4 132.2100000000 -1.2460905678 0.1462481901 1 1 1.0
341 3 132.6000000000 -1.1570594150 -0.2159579368 1 1 1.0
342 3 132.9900000000 -0.8783905742 -0.4638762736 1 1 1.0
343 4 133.3800000000 -0.5082835907 -0.5101433821 1 1 1.0
344 3 133.7700000000 -0.1771597110 -0.3384552903 1 1 1.0
345 4 134.1600000000 -0.0017030050 -0.0093128153 1 1 1.0
346 4 134.5500000000 -0.0437423040 0.3612981962 1 1 1.0
347 2 134.9400000000 -0.2884634651 0.6427788845 1 1 1.0
348 2 135.3300000000 -0.6496296965 0.7359388428 1 1 1.0
349 2 135.7200000000 -0.9999703653 0.6079496230 1 1 1.0
350 1 136.1100000000 -1.2160296364 0.3039130859 1 1 1.0
351 2 136.5000000000 -1.2216708231 -0.0690319524 1 1 1.0
352 3 136.8900000000 -1.0149060391 -0.3794641490 1 1 1.0
353 1 137.2800000000 -0.6685967058 -0.5179909341 1 1 1.0
354 3 137.6700000000 -0.3047780640 -0.4357971360 1 1 1.0
355 4 138.0600000000 -0.0516554242 -0.1618468599 1 1 1.0
356 2 138.4500000000 0.0015738418 0.2073231142 1 1 1.0
357 3 138.8400000000 -0.1638476187 0.5416217307 1 1 1.0
358 1 139.2300000000 -0.4896272738 0.7232461807 1 1 1.0
359 2 139.6200000000 -0.8609642943 0.6881941940 1 1 1.0
360 2 140.0100000000 -1.1470039835 0.4488176689 1 1 1.0
361 1 140.4000000000 -1.2469493976 0.0894700117 1 1 1.0
362 1 140.7900000000 -1.1255809756 -0.2632189883 1 1 1.0
363 2 141.1800000000 -0.8256674887 -0.4849659724 1 1 1.0
364 4 141.5700000000 -0.4528948399 -0.4976299722 1 1 1.0
365 3 141.9600000000 -0.1386236241 -0.2967483468 1 1 1.0
366 3 142.3500000000 0.0064007649 0.0468906370 1 1 1.0
367 2 142.7400000000 -0.0689265221 0.4121927372 1 1 1.0
368 1 143.1300000000 -0.3380610559 0.6704298904 1 1 1.0
369 2 143.5200000000 -0.7061630660 0.7306024319 1 1 1.0
370 3 143.9100000000 -1.0435178344 0.5715062824 1 1 1.0
371 4 144.3000000000 -1.2312456011 0.2492050101 1 1 1.0
372 3 144.6900000000 -1.2031933607 -0.1227262959 1 1 1.0
373 1 145.0800000000 -0.9692463849 -0.4132235198 1 1 1.0
374 2 145.4700000000 -0.6118447724 -0.5199189363 1 1 1.0
375 3 145.8600000000 -0.2569325496 -0.4052143648 1 1 1.0
376 1 146.2500000000 -0.0295765123 -0.1095303158 1 1 1.0
377 3 146.6400000000 -0.0098941916 0.2629377108 1 1 1.0
378 2 147.0300000000 -0.2048214004 0.5809364653 1 1 1.0
379 2 147.4200000000 -0.5456681364 0.7324070140 1 1 1.0
380 4 147.8100000000 -0.9123241122 0.6639729586 1 1 1.0
381 4 148.2000000000 -1.1755841751 0.3997496366 1 1 1.0
382 3 148.5900000000 -1.2426786473 0.0328461666 1 1 1.0
383 3 148.9800000000 -1.0899642445 -0.3074450848 1 1 1.0
384 3 149.3700000000 -0.7712556841 -0.5012095761 1 1 1.0
385 1 149.7600000000 -0.3988620269 -0.4801670327 1 1 1.0
386 1 150.1500000000 -0.1040103156 -0.2517325938 1 1 1.0
387 3 150.5400000000 0.0093972556 0.1035961939 1 1 1.0
388 2 150.9300000000 -0.0986027766 0.4606057423 1 1 1.0
389 4 151.3200000000 -0.3899525006 0.6934901833 1 1 1.0
390 3 151.7100000000 -0.7619837803 0.7201838431 1 1 1.0
391 2 152.1000000000 -1.0835972705 0.5312801971 1 1 1.0
392 4 152.4900000000 -1.2414602481 0.1933466165 1 1 1.0
393 4 152.8800000000 -1.1799436999 -0.1745331720 1 1 1.0
394 4 153.2700000000 -0.9207253170 -0.4427227589 1 1 1.0
395 2 153.6600000000 -0.5551505376 -0.5167153616 1 1 1.0
396 2 154.0500000000 -0.2120435141 -0.3704368775 1 1 1.0
397 3 154.4400000000 -0.0123110318 -0.0554340837 1 1 1.0
398 4 154.8300000000 -0.0263364136 0.3172898265 1 1 1.0
399 3 155.2200000000 -0.2491772838 0.6163914332 1 1 1.0
400 2 155.6100000000 -0.6023072017 0.7364709302 1 1 1.0
401 1 156.0000000000 -0.9612874346 0.6352137479 1 1 1.0
402 2 156.3900000000 -1.1996176690 0.3483016988 1 1 1.0
403 2 156.7800000000 -1.2333131988 -0.0231608644 1 1 1.0
404 1 157.1700000000 -1.0505001248 -0.3482750052 1 1 1.0
405 3 157.5600000000 -0.7155995741 -0.5124744134 1 1 1.0
406 3 157.9500000000 -0.3466264698 -0.4578971939 1 1 1.0
407 2 158.3400000000 -0.0736024931 -0.2037757020 1 1 1.0
408 3 158.7300000000 0.0072619929 0.1603407072 1 1 1.0
409 4 159.1200000000 -0.1325286836 0.5061417936 1 1 1.0
410 1 159.5100000000 -0.4437139706 0.7117714163 1 1 1.0
411 4 159.9000000000 -0.8166359184 0.7047681711 1 1 1.0
412 2 160.2900000000 -1.1198813209 0.4875999175 1 1 1.0
413 1 160.6800000000 -1.2465901483 0.1367941342 1 1 1.0
414 2 161.0700000000 -1.1521117347 -0.2240294431 1 1 1.0
415 3 161.4600000000 -0.8697391359 -0.4677209285 1 1 1.0
416 3 161.8500000000 -0.4989770573 -0.5084063756 1 1 1.0
417 3 162.2400000000 -0.1704775928 -0.3317487225 1 1 1.0
418 2 162.6300000000 -0.0000000000 0.0000000000 1 1 1.0
419 1 162.6300000000 1.5600000000 0.0000000000 1 1 1.0
420 4 162.2400000000 1.6064501731 0.3688190883 1 1 1.0
421 2 161.8500000000 1.8529102546 0.6471041341 1 1 1.0
422 4 161.4600000000 2.2134124711 0.7377864940 1 1 1.0
423 4 161.0700000000 2.5622099970 0.6092352421 1 1 1.0
424 1 160.6800000000 2.7776387216 0.3062903575 1 1 1.0
425 3 160.2900000000 2.7845549231 -0.0653779148 1 1 1.0
426 2 159.9000000000 2.5805461603 -0.3761279159 1 1 1.0
427 1 159.5100000000 2.2367727566 -0.5175668971 1 1 1.0
428 2 159.1200000000 1.8731463581 -0.4403595087 1 1 1.0
429 2 158.7300000000 1.6165035367 -0.1714364701 1 1 1.0
430 2 158.3400000000 1.5563639086 0.1953991383 1 1 1.0
431 4 157.9500000000 1.7137047854 0.5321913397 1 1 1.0
432 1 157.5600000000 2.0336440752 0.7214636022 1 1 1.0
433 1 157.1700000000 2.4045837122 0.6971958429 1 1 1.0
434 1 156.7800000000 2.6971361930 0.4678529022 1 1 1.0
435 3 156.3900000000 2.8092562482 0.1134319213 1 1 1.0
436 2 156.0000000000 2.7018352668 -0.2424414708 1 1 1.0
437 3 155.6100000000 2.4123427752 -0.4756350295 1 1 1.0
438 4 155.2200000000 2.0417566876 -0.5048084789 1 1 1.0
439 2 154.8300000000 1.7193411859 -0.3197858243 1 1 1.0
440 2 154.4400000000 1.5575580635 0.0148951579 1 1 1.0
441 2 154.0500000000 1.6128389127 0.3824943502 1 1 1.0
442 2 153.6600000000 1.8659012132 0.6547894301 1 1 1.0
443 1 153.2700000000 2.2284742707 0.7368011150 1 1 1.0
444 4 152.8800000000 2.5740889294 0.5999228983 1 1 1.0
445 2 152.4900000000 2.7821912947 0.2918992887 1 1 1.0
446 4 152.1000000000 2.7801931533 -0.0798279579 1 1 1.0
447 3 151.7100000000 2.5687914771 -0.3855966119 1 1 1.0
448 2 151.3200000000 2.2217253126 -0.5187514689 1 1 1.0
449 4 150.9300000000 1.8600548542 -0.4328467658 1 1 1.0
450 3 150.5400000000 1.6099344221 -0.1578469332 1 1 1.0
451 1 150.1500000000 1.5586085570 0.2103253010 1 1 1.0
452 1 149.7600000000 1.7239802407 0.5432477315 1 1 1.0
453 2 149.3700000000 2.0483661545 0.7247936415 1 1 1.0
454 4 148.9800000000 2.4186172051 0.6916379783 1 1 1.0
455 2 148.5900000000 2.7055860749 0.4553457731 1 1 1.0
456 1 148.2000000000 2.8091751148 0.0983381412 1 1 1.0
457 3 147.8100000000 2.6932514181 -0.2548570386 1 1 1.0
458 1 147.4200000000 2.3982503447 -0.4810417091 1 1 1.0
459 1 147.0300000000 2.0270712578 -0.5013203657 1 1 1.0
460 1 146.6400000000 1.7091851835 -0.3086196075 1 1 1.0
461 2 146.2500000000 1.5554740050 0.0298445887 1 1 1.0
462 1 145.8600000000 1.6195537389 0.3960124821 1 1 1.0
463 4 145.4700000000 1.8790727246 0.6621610018 1 1 1.0
464 3 145.0800000000 2.2435081107 0.7354548475 1 1 1.0
465 2 144.6900000000 2.5857411423 0.5903283834 1 1 1.0
466 3 144.3000000000 2.7863974706 0.2774031905 1 1 1.0
467 4 143.9100000000 2.7754861354 -0.0941692537 1 1 1.0
468 1 143.5200000000 2.5568131210 -0.3947807159 1 1 1.0
469 1 143.1300000000 2.2066537902 -0.5195748726 1 1 1.0
470 3 142.7400000000 1.8471472653 -0.4250222576 1 1 1.0
471 4 142.3500000000 1.6036930644 -0.1441037809 1 1 1.0
472 4 141.9600000000 1.5612104793 0.2251933467 1 1 1.0
473 3 141.5700000000 1.7345178662 0.5540545456 1 1 1.0
474 3 141.1800000000 2.0631638526 0.7277696977 1 1 1.0
475 4 140.7900000000 2.4325133889 0.6857451981 1 1 1.0
476 2 140.4000000000 2.7137336146 0.4426396180 1 1 1.0
477 1 140.0100000000 2.8087320661 0.0832506467 1 1 1.0
478 4 139.6200000000 2.6843723208 -0.2670632015 1 1 1.0
479 4 139.2300000000 2.3840323179 -0.4861089071 1 1 1.0
480 3 138.8400000000 2.0124736934 -0.4974811089 1 1 1.0
481 4 138.4500000000 1.6992998597 -0.2972130675 1 1 1.0
482 1 138.0600000000 1.5537490231 0.0448396951 1 1 1.0
483 2 137.6700000000 1.6265907899 0.4093657100 1 1 1.0
484 3 137.2800000000 1.8924172139 0.6692146098 1 1 1.0
485 1 136.8900000000 2.2585053452 0.7337484659 1 1 1.0
486 1 136.5000000000 2.5971599347 0.5804572152 1 1 1.0
487 1 136.1100000000 2.7902548304 0.2628103992 1 1 1.0
488 4 135.7200000000 2.7704365764 -0.1083935546 1 1 1.0
489 2 135.3300000000 2.5446179805 -0.4036749462 1 1 1.0
490 4 134.9400000000 2.1915668569 -0.5200366346 1 1 1.0
491 1 134.5500000000 1.8344310142 -0.4168904841 1 1 1.0
492 4 134.1600000000 1.5977830528 -0.1302149168 1 1 1.0
493 3 133.7700000000 1.5641681792 0.2399947248 1 1 1.0
494 3 133.3800000000 1.7453116018 0.5646055670 1 1 1.0
495 4 132.9900000000 2.0780286596 0.7303900594 1 1 1.0
496 1 132.6000000000 2.4462642720 0.6795208913 1 1 1.0
497 4 132.2100000000 2.7215741265 0.4297417440 1 1 1.0
498 3 131.8200000000 2.8079273568 0.0681781146 1 1 1.0
499 4 131.4300000000 2.6752030811 -0.2790529398 1 1 1.0
500 1 131.0400000000 2.3696968715 -0.4908337094 1 1 1.0
501 3 130.6500000000 1.9979723891 -0.4932929162 1 1 1.0
502 4 130.2600000000 1.6896908996 -0.2855727640 1 1 1.0
503 2 129.8700000000 1.5523841096 0.0598718538 1 1 1.0
504 3 129.4800000000 1.6339460188 0.4225463545 1 1 1.0
505 3 129.0900000000 1.9059270068 0.6759461979 1 1 1.0
506 2 128.7000000000 2.2734573495 0.7316829513 1 1 1.0
507 1 128.3100000000 2.6083387397 0.5703150705 1 1 1.0
508 4 127.9200000000 2.7937611558 0.2481293071 1 1 1.0
509 2 127.5300000000 2.7650473803 -0.1224926803 1 1 1.0
510 1 127.1400000000 2.5322130692 -0.4122741877 1 1 1.0
511 1 126.7500000000 2.1764731890 -0.5201364894 1 1 1.0
512 1 126.3600000000 1.8219134141 -0.4084561217 1 1 1.0
513 1 125.9700000000 1.5922077862 -0.1161883284 1 1 1.0
514 3 125.5800000000 1.5674799556 0.2547209231 1 1 1.0
515 2 125.1900000000 1.7563552400 0.5748947281 1 1 1.0
516 3 124.8000000000 2.0929520268 0.7326532196 1 1 1.0
517 3 124.4100000000 2.4598619464 0.6729686374 1 1 1.0
518 3 124.0200000000 2.7291031016 0.4166595685 1 1 1.0
519 3 123.6300000000 2.8067614497 0.0531292129 1 1 1.0
520 2 123.2400000000 2.6657489721 -0.2908193583 1 1 1.0
521 3 122.8500000000 2.3552522496 -0.4952133988 1 1 1.0
522 4 122.4600000000 1.9835756848 -0.4887581964 1 1 1.0
523 4 122.0700000000 1.6803638290 -0.2737053912 1 1 1.0
524 2 121.6800000000 1.5513800497 0.0749324197 1 1 1.0
525 1 121.2900000000 1.6416151957 0.4355468355 1 1 1.0
526 4 120.9000000000 1.9195943340 0.6823518945 1 1 1.0
527 4 120.5100000000 2.2883555247 0.7292594917 1 1 1.0
528 3 120.1200000000 2.6192711285 0.5599077819 1 1 1.0
529 4 119.7300000000 2.7969144302 0.2333683573 1 1 1.0
530 2 119.3400000000 2.7593216463 -0.1364585226 1 1 1.0
531 4 118.9500000000 2.5196055207 -0.4205734951 1 1 1.0
532 3 118.5600000000 2.1613814667 -0.5198743794 1 1 1.0
533 2 118.1700000000 1.8096016637 -0.3997240210 1 1 1.0
534 3 117.7800000000 1.5869704709 -0.1020320821 1 1 1.0
535 1 117.3900000000 1.5711439040 0.2693634729 1 1 1.0
536 2 117.0000000000 1.7676424298 0.5849161116 1 1 1.0
537 2 116.6100000000 2.1079253718 0.7345578768 1 1 1.0