# LAMMPS data file
2520 atoms
2520 ellipsoids
2519 bonds

4 atom types
1 bond types

0.0 50.0 xlo xhi
0.0 50.0 ylo yhi
0.0 50.0 zlo zhi

Masses

1 3.1575
2 3.1575
3 3.1575
4 3.1575

Atoms

1 2 0.0000000000 0.0000000000 0.0000000000 1 1 1.0
2 3 0.3900000000 -0.0492849280 0.3715157308 1 1 1.0
3 4 0.7800000000 -0.3017355302 0.6485024378 1 1 1.0
4 4 1.1700000000 -0.6671005355 0.7319371747 1 1 1.0
5 3 1.5600000000 -1.0147616926 0.5919919633 1 1 1.0
6 3 1.9500000000 -1.2204298889 0.2786973170 1 1 1.0
7 2 2.3400000000 -1.2105785968 -0.0959437038 1 1 1.0
8 2 2.7300000000 -0.9887296603 -0.3979966656 1 1 1.0
9 1 3.1200000000 -0.6341942331 -0.5194774183 1 1 1.0
10 3 3.5100000000 -0.2737189845 -0.4169565056 1 1 1.0
11 4 3.9000000000 -0.0361740741 -0.1270852274 1 1 1.0
12 4 4.2900000000 -0.0064819776 0.2465072267 1 1 1.0
13 4 4.6800000000 -0.1952576407 0.5702612868 1 1 1.0
14 3 5.0700000000 -0.5350136287 0.7284346443 1 1 1.0
15 3 5.4600000000 -0.9042869324 0.6644802107 1 1 1.0
16 4 5.8500000000 -1.1710620811 0.4012617417 1 1 1.0
17 1 6.2400000000 -1.2399667681 0.0328800287 1 1 1.0
18 3 6.6300000000 -1.0863675185 -0.3089682021 1 1 1.0
19 3 7.0200000000 -0.7651761739 -0.5020719632 1 1 1.0
20 1 7.4100000000 -0.3912188702 -0.4773965216 1 1 1.0
21 1 7.8000000000 -0.0981856114 -0.2437633655 1 1 1.0
22 2 8.1900000000 0.0091640025 0.1153034845 1 1 1.0
23 4 8.5800000000 -0.1075475923 0.4714373723 1 1 1.0
24 3 8.9700000000 -0.4065959171 0.6973201778 1 1 1.0
25 3 9.3600000000 -0.7810709816 0.7121986362 1 1 1.0
26 1 9.7500000000 -1.0970976817 0.5107536880 1 1 1.0
27 4 10.1400000000 -1.2416962460 0.1650020464 1 1 1.0
28 1 10.5300000000 -1.1631725839 -0.2014498288 1 1 1.0
29 2 10.9200000000 -0.8895989610 -0.4575951299 1 1 1.0
30 4 11.3100000000 -0.5187781435 -0.5118617281 1 1 1.0
31 1 11.7000000000 -0.1832788393 -0.3448492757 1 1 1.0
32 3 12.0900000000 -0.0030422900 -0.0162648441 1 1 1.0
33 1 12.4800000000 -0.0425031911 0.3564223970 1 1 1.0
34 4 12.8700000000 -0.2875542423 0.6399764919 1 1 1.0
35 1 13.2600000000 -0.6505895171 0.7330266485 1 1 1.0
36 1 13.6500000000 -1.0018236447 0.6023073691 1 1 1.0
37 2 14.0400000000 -1.2156901728 0.2945508898 1 1 1.0
38 4 14.4300000000 -1.2157316645 -0.0802196275 1 1 1.0
39 3 14.8200000000 -1.0019332863 -0.3880234545 1 1 1.0
40 3 15.2100000000 -0.6507281118 -0.5188205024 1 1 1.0
41 4 15.6000000000 -0.2876722423 -0.4258507329 1 1 1.0
42 4 15.9900000000 -0.0425584114 -0.1423509052 1 1 1.0
43 4 16.3800000000 -0.0030149892 0.2303275891 1 1 1.0
44 4 16.7700000000 -0.1831787775 0.5589519214 1 1 1.0
45 2 17.1600000000 -0.5186410929 0.7260386574 1 1 1.0
46 1 17.5500000000 -0.8894739173 0.6718541693 1 1 1.0
47 4 17.9400000000 -1.1631042502 0.4157694503 1 1 1.0
48 3 18.3300000000 -1.2417090517 0.0493349711 1 1 1.0
49 2 18.7200000000 -1.0971870488 -0.2964486796 1 1 1.0
50 4 19.1100000000 -0.7812049612 -0.4979635988 1 1 1.0
51 4 19.5000000000 -0.4067266115 -0.4831680587 1 1 1.0
52 2 19.8900000000 -0.1076282781 -0.2573514753 1 1 1.0
53 3 20.2800000000 0.0091621706 0.0987565610 1 1 1.0
54 4 20.6700000000 -0.0981079346 0.4578471720 1 1 1.0
55 2 21.0600000000 -0.3910894541 0.6915452071 1 1 1.0
56 2 21.4500000000 -0.7650412849 0.7163034513 1 1 1.0
57 1 21.8400000000 -1.0862753795 0.5232708144 1 1 1.0
58 3 22.2300000000 -1.2399503189 0.1814566026 1 1 1.0
59 2 22.6200000000 -1.1711272022 -0.1869403585 1 1 1.0
60 3 23.0100000000 -0.9044103430 -0.4502178915 1 1 1.0
61 3 23.4000000000 -0.5351512094 -0.5142540896 1 1 1.0
62 3 23.7900000000 -0.1953602063 -0.3561559662 1 1 1.0
63 3 24.1800000000 -0.0065128608 -0.0324437136 1 1 1.0
64 2 24.5700000000 -0.0361222342 0.3411553059 1 1 1.0
65 3 24.9600000000 -0.2736029542 0.6310791753 1 1 1.0
66 3 25.3500000000 -0.6340554934 0.7336799034 1 1 1.0
67 1 25.7400000000 -0.9886178107 0.6122776564 1 1 1.0
68 3 26.1300000000 -1.2105336236 0.3102738247 1 1 1.0
69 1 26.5200000000 -1.2204678701 -0.0643650055 1 1 1.0
70 4 26.9100000000 -1.0148690499 -0.3777051841 1 1 1.0
71 3 27.3000000000 -0.6672388885 -0.5177273727 1 1 1.0
72 2 27.6900000000 -0.3018554177 -0.4343735385 1 1 1.0
73 2 28.0800000000 -0.0493434901 -0.1574427370 1 1 1.0
74 3 28.4700000000 0.0000236993 0.2140620718 1 1 1.0
75 1 28.8600000000 -0.1714026551 0.5473276527 1 1 1.0
76 3 29.2500000000 -0.5023375088 0.7232113217 1 1 1.0
77 3 29.6400000000 -0.8744714145 0.6788345411 1 1 1.0
78 2 30.0300000000 -1.1547662342 0.4300620418 1 1 1.0
79 1 30.4200000000 -1.2430163692 0.0658301705 1 1 1.0
80 1 30.8100000000 -1.1076723328 -0.2836479179 1 1 1.0
81 4 31.2000000000 -0.7971197152 -0.4934335563 1 1 1.0
82 4 31.5900000000 -0.4223812996 -0.4885282287 1 1 1.0
83 4 31.9800000000 -0.1174263380 -0.2706855933 1 1 1.0
84 3 32.3700000000 0.0087235523 0.0822154518 1 1 1.0
85 3 32.7600000000 -0.0890303050 0.4440125300 1 1 1.0
86 3 33.1500000000 -0.3757408357 0.6853629267 1 1 1.0
87 4 33.5400000000 -0.7489088197 0.7199837021 1 1 1.0
88 3 33.9300000000 -1.0751264354 0.5354979043 1 1 1.0
89 1 34.3200000000 -1.2377706514 0.1978593381 1 1 1.0
90 4 34.7100000000 -1.1786960441 -0.1722259671 1 1 1.0
91 1 35.1000000000 -0.9190218277 -0.4424522497 1 1 1.0
92 2 35.4900000000 -0.5515817208 -0.5162134198 1 1 1.0
93 2 35.8800000000 -0.2077358248 -0.3671398065 1 1 1.0
94 3 36.2700000000 -0.0104092939 -0.0485253332 1 1 1.0
95 2 36.6600000000 -0.0301465042 0.3257250975 1 1 1.0
96 2 37.0500000000 -0.2598913890 0.6218166886 1 1 1.0
97 3 37.4400000000 -0.6175099873 0.7338964841 1 1 1.0
98 4 37.8300000000 -0.9751533940 0.6218958768 1 1 1.0
99 4 38.2200000000 -1.2049638349 0.3258551640 1 1 1.0
100 2 38.6100000000 -1.2247839129 -0.0483908872 1 1 1.0
101 2 39.0000000000 -1.0275279358 -0.3670490456 1 1 1.0
102 2 39.3900000000 -0.6837150567 -0.5161987911 1 1 1.0
103 3 39.7800000000 -0.3162586263 -0.4425189829 1 1 1.0
104 2 40.1700000000 -0.0565245817 -0.1723502051 1 1 1.0
105 1 40.5600000000 0.0026319701 0.1977220105 1 1 1.0
106 3 40.9500000000 -0.1599374806 0.5353965818 1 1 1.0
107 2 41.3400000000 -0.4861142387 0.7199546076 1 1 1.0
108 2 41.7300000000 -0.8592898794 0.6854164614 1 1 1.0
109 3 42.1200000000 -1.1460538439 0.4441295553 1 1 1.0
110 4 42.5100000000 -1.2438878094 0.0823541310 1 1 1.0
111 2 42.9000000000 -1.1178160631 -0.2705748380 1 1 1.0
112 2 43.2900000000 -0.8129093446 -0.4884849925 1 1 1.0
113 3 43.6800000000 -0.4381720243 -0.4934732961 1 1 1.0
114 4 44.0700000000 -0.1275729627 -0.2837564268 1 1 1.0
115 1 44.4600000000 0.0078484532 0.0656916846 1 1 1.0
116 1 44.8500000000 -0.0803210298 0.4299430877 1 1 1.0
117 1 45.2400000000 -0.3605607584 0.6787776450 1 1 1.0
118 1 45.6300000000 -0.7326848288 0.7232368239 1 1 1.0
119 1 46.0200000000 -1.0636586193 0.5474264363 1 1 1.0
120 3 46.4100000000 -1.2351587626 0.2141988215 1 1 1.0
121 3 46.4100000000 -2.7951587626 0.2141988215 1 1 1.0
122 1 46.0200000000 -2.8444436906 -0.1573169093 1 1 1.0
123 2 45.6300000000 -3.0968942928 -0.4343036163 1 1 1.0
124 3 45.2400000000 -3.4622592981 -0.5177383532 1 1 1.0
125 2 44.8500000000 -3.8099204552 -0.3777931418 1 1 1.0
126 4 44.4600000000 -4.0155886515 -0.0644984955 1 1 1.0
127 3 44.0700000000 -4.0057373594 0.3101425253 1 1 1.0
128 2 43.6800000000 -3.7838884229 0.6121954871 1 1 1.0
129 4 43.2900000000 -3.4293529957 0.7336762398 1 1 1.0
130 3 42.9000000000 -3.0688777471 0.6311553271 1 1 1.0
131 2 42.5100000000 -2.8313328367 0.3412840489 1 1 1.0
132 4 42.1200000000 -2.8016407402 -0.0323084052 1 1 1.0
133 4 41.7300000000 -2.9904164033 -0.3560624653 1 1 1.0
134 1 41.3400000000 -3.3301723913 -0.5142358228 1 1 1.0
135 4 40.9500000000 -3.6994456949 -0.4502813892 1 1 1.0
136 4 40.5600000000 -3.9662208437 -0.1870629202 1 1 1.0
137 3 40.1700000000 -4.0351255307 0.1813187928 1 1 1.0
138 2 39.7800000000 -3.8815262810 0.5231670236 1 1 1.0
139 1 39.3900000000 -3.5603349364 0.7162707847 1 1 1.0
140 3 39.0000000000 -3.1863776328 0.6915953432 1 1 1.0
141 2 38.6100000000 -2.8933443740 0.4579621870 1 1 1.0
142 4 38.2200000000 -2.7859947601 0.0988953370 1 1 1.0
143 4 37.8300000000 -2.9027063549 -0.2572385508 1 1 1.0
144 1 37.4400000000 -3.2017546797 -0.4831213563 1 1 1.0
145 4 37.0500000000 -3.5762297441 -0.4979998147 1 1 1.0
146 2 36.6600000000 -3.8922564443 -0.2965548665 1 1 1.0
147 3 36.2700000000 -4.0368550085 0.0491967751 1 1 1.0
148 3 35.8800000000 -3.9583313465 0.4156486503 1 1 1.0
149 3 35.4900000000 -3.6847577236 0.6717939514 1 1 1.0
150 1 35.1000000000 -3.3139369061 0.7260605496 1 1 1.0
151 3 34.7100000000 -2.9784376018 0.5590480972 1 1 1.0
152 1 34.3200000000 -2.7982010526 0.2304636656 1 1 1.0
153 4 33.9300000000 -2.8376619537 -0.1422235755 1 1 1.0
154 4 33.5400000000 -3.0827130049 -0.4257776704 1 1 1.0
155 4 33.1500000000 -3.4457482797 -0.5188278270 1 1 1.0
156 3 32.7600000000 -3.7969824073 -0.3881085476 1 1 1.0
157 2 32.3700000000 -4.0108489354 -0.0803520683 1 1 1.0
158 2 31.9800000000 -4.0108904271 0.2944184490 1 1 1.0
159 2 31.5900000000 -3.7970920489 0.6022222760 1 1 1.0
160 2 31.2000000000 -3.4458868743 0.7330193239 1 1 1.0
161 4 30.8100000000 -3.0828310049 0.6400495544 1 1 1.0
162 2 30.4200000000 -2.8377171740 0.3565497267 1 1 1.0
163 2 30.0300000000 -2.7981737518 -0.0161287676 1 1 1.0
164 1 29.6400000000 -2.9783375401 -0.3447530999 1 1 1.0
165 4 29.2500000000 -3.3137998555 -0.5118398359 1 1 1.0
166 4 28.8600000000 -3.6846326799 -0.4576553478 1 1 1.0
167 2 28.4700000000 -3.9582630128 -0.2015706288 1 1 1.0
168 4 28.0800000000 -4.0368678143 0.1648638504 1 1 1.0
169 4 27.6900000000 -3.8923458114 0.5106475011 1 1 1.0
170 3 27.3000000000 -3.5763637238 0.7121624204 1 1 1.0
171 2 26.9100000000 -3.2018853741 0.6973668802 1 1 1.0
172 4 26.5200000000 -2.9027870407 0.4715502968 1 1 1.0
173 4 26.1300000000 -2.7859965920 0.1154422605 1 1 1.0
174 2 25.7400000000 -2.8932666972 -0.2436483505 1 1 1.0
175 2 25.3500000000 -3.1862482167 -0.4773463856 1 1 1.0
176 4 24.9600000000 -3.5602000475 -0.5021046297 1 1 1.0
177 4 24.5700000000 -3.8814341421 -0.3090719929 1 1 1.0
178 2 24.1800000000 -4.0351090815 0.0327422189 1 1 1.0
179 4 23.7900000000 -3.9662859648 0.4011391800 1 1 1.0
180 1 23.4000000000 -3.6995691055 0.6644167130 1 1 1.0
181 4 23.0100000000 -3.3303099720 0.7284529112 1 1 1.0
182 4 22.6200000000 -2.9905189689 0.5703547877 1 1 1.0
183 3 22.2300000000 -2.8016716234 0.2466425351 1 1 1.0
184 1 21.8400000000 -2.8312809968 -0.1269564844 1 1 1.0
185 3 21.4500000000 -3.0687617168 -0.4168803538 1 1 1.0
186 1 21.0600000000 -3.4292142560 -0.5194810818 1 1 1.0
187 2 20.6700000000 -3.7837765733 -0.3980788349 1 1 1.0
188 1 20.2800000000 -4.0056923862 -0.0960750032 1 1 1.0
189 2 19.8900000000 -4.0156266327 0.2785638271 1 1 1.0
190 4 19.5000000000 -3.8100278125 0.5919040056 1 1 1.0
191 2 19.1100000000 -3.4623976511 0.7319261942 1 1 1.0
192 1 18.7200000000 -3.0970141803 0.6485723600 1 1 1.0
193 3 18.3300000000 -2.8445022527 0.3716415585 1 1 1.0
194 2 17.9400000000 -2.7951350633 0.0001367497 1 1 1.0
195 4 17.5500000000 -2.9665614177 -0.3331288312 1 1 1.0
196 1 17.1600000000 -3.2974962714 -0.5090125002 1 1 1.0
197 4 16.7700000000 -3.6696301771 -0.4646357196 1 1 1.0
198 1 16.3800000000 -3.9499249968 -0.2158632203 1 1 1.0
199 4 15.9900000000 -4.0381751317 0.1483686510 1 1 1.0
200 3 15.6000000000 -3.9028310954 0.4978467394 1 1 1.0
201 1 15.2100000000 -3.5922784778 0.7076323778 1 1 1.0
202 3 14.8200000000 -3.2175400622 0.7027270502 1 1 1.0
203 4 14.4300000000 -2.9125851006 0.4848844148 1 1 1.0
204 1 14.0400000000 -2.7864352103 0.1319833697 1 1 1.0
205 3 13.6500000000 -2.8841890675 -0.2298137085 1 1 1.0
206 4 13.2600000000 -3.1708995982 -0.4711641051 1 1 1.0
207 2 12.8700000000 -3.5440675823 -0.5057848806 1 1 1.0
208 3 12.4800000000 -3.8702851980 -0.3212990828 1 1 1.0
209 3 12.0900000000 -4.0329294140 0.0163394834 1 1 1.0
210 3 11.7000000000 -3.9738548067 0.3864247886 1 1 1.0
211 2 11.3100000000 -3.7141805903 0.6566510712 1 1 1.0
212 1 10.9200000000 -3.3467404834 0.7304122414 1 1 1.0
213 3 10.5300000000 -3.0028945874 0.5813386280 1 1 1.0
214 4 10.1400000000 -2.8055680565 0.2627241548 1 1 1.0
215 1 9.7500000000 -2.8253052668 -0.1115262760 1 1 1.0
216 4 9.3600000000 -3.0550501516 -0.4076178671 1 1 1.0
217 1 8.9700000000 -3.4126687498 -0.5196976626 1 1 1.0
218 1 8.5800000000 -3.7703121565 -0.4076970553 1 1 1.0
219 2 8.1900000000 -4.0001225975 -0.1116563425 1 1 1.0
220 2 7.8000000000 -4.0199426755 0.2625897088 1 1 1.0
221 4 7.4100000000 -3.8226866984 0.5812478671 1 1 1.0
222 4 7.0200000000 -3.4788738193 0.7303976126 1 1 1.0
223 1 6.6300000000 -3.1114173889 0.6567178044 1 1 1.0
224 1 6.2400000000 -2.8516833443 0.3865490266 1 1 1.0
225 4 5.8500000000 -2.7925267925 0.0164768110 1 1 1.0
226 2 5.4600000000 -2.9550962432 -0.3211977603 1 1 1.0
227 4 5.0700000000 -3.2812730013 -0.5057557861 1 1 1.0
228 2 4.6800000000 -3.6544486420 -0.4712176399 1 1 1.0
229 2 4.2900000000 -3.9412126065 -0.2299307338 1 1 1.0
230 4 3.9000000000 -4.0390465720 0.1318446905 1 1 1.0
231 3 3.5100000000 -3.9129748257 0.4847736595 1 1 1.0
232 4 3.1200000000 -3.6080681072 0.7026838140 1 1 1.0
233 1 2.7300000000 -3.2333307869 0.7076721176 1 1 1.0
234 4 2.3400000000 -2.9227317253 0.4979552483 1 1 1.0
235 3 1.9500000000 -2.7873103094 0.1485071370 1 1 1.0
236 3 1.5600000000 -2.8754797924 -0.2157442661 1 1 1.0
237 4 1.1700000000 -3.1557195210 -0.4645788234 1 1 1.0
238 3 0.7800000000 -3.5278435914 -0.5090380024 1 1 1.0
239 2 0.3900000000 -3.8588173819 -0.3332276148 1 1 1.0
240 4 -0.0000000000 -4.0303175252 0.0000000000 1 1 1.0
241 1 -0.0000000000 -5.5903175252 0.0000000000 1 1 1.0
242 3 0.3900000000 -5.6396024532 0.3715157308 1 1 1.0
243 2 0.7800000000 -5.8920530554 0.6485024378 1 1 1.0
244 3 1.1700000000 -6.2574180606 0.7319371747 1 1 1.0
245 4 1.5600000000 -6.6050792178 0.5919919633 1 1 1.0
246 4 1.9500000000 -6.8107474141 0.2786973170 1 1 1.0
247 2 2.3400000000 -6.8008961220 -0.0959437038 1 1 1.0
248 1 2.7300000000 -6.5790471855 -0.3979966656 1 1 1.0
249 4 3.1200000000 -6.2245117583 -0.5194774183 1 1 1.0
250 3 3.5100000000 -5.8640365097 -0.4169565056 1 1 1.0
251 2 3.9000000000 -5.6264915993 -0.1270852274 1 1 1.0
252 3 4.2900000000 -5.5967995028 0.2465072267 1 1 1.0
253 4 4.6800000000 -5.7855751659 0.5702612868 1 1 1.0
254 3 5.0700000000 -6.1253311539 0.7284346443 1 1 1.0
255 3 5.4600000000 -6.4946044575 0.6644802107 1 1 1.0
256 1 5.8500000000 -6.7613796063 0.4012617417 1 1 1.0
257 2 6.2400000000 -6.8302842933 0.0328800287 1 1 1.0
258 3 6.6300000000 -6.6766850436 -0.3089682021 1 1 1.0
259 3 7.0200000000 -6.3554936990 -0.5020719632 1 1 1.0
260 4 7.4100000000 -5.9815363953 -0.4773965216 1 1 1.0
261 1 7.8000000000 -5.6885031366 -0.2437633655 1 1 1.0
262 4 8.1900000000 -5.5811535227 0.1153034845 1 1 1.0
263 3 8.5800000000 -5.6978651175 0.4714373723 1 1 1.0
264 3 8.9700000000 -5.9969134423 0.6973201778 1 1 1.0
265 3 9.3600000000 -6.3713885067 0.7121986362 1 1 1.0
266 3 9.7500000000 -6.6874152069 0.5107536880 1 1 1.0
267 3 10.1400000000 -6.8320137711 0.1650020464 1 1 1.0
268 3 10.5300000000 -6.7534901091 -0.2014498288 1 1 1.0
269 3 10.9200000000 -6.4799164862 -0.4575951299 1 1 1.0
270 1 11.3100000000 -6.1090956687 -0.5118617281 1 1 1.0
271 1 11.7000000000 -5.7735963644 -0.3448492757 1 1 1.0
272 4 12.0900000000 -5.5933598151 -0.0162648441 1 1 1.0
273 4 12.4800000000 -5.6328207163 0.3564223970 1 1 1.0
274 4 12.8700000000 -5.8778717675 0.6399764919 1 1 1.0
275 3 13.2600000000 -6.2409070423 0.7330266485 1 1 1.0
276 2 13.6500000000 -6.5921411699 0.6023073691 1 1 1.0
277 4 14.0400000000 -6.8060076980 0.2945508898 1 1 1.0
278 1 14.4300000000 -6.8060491897 -0.0802196275 1 1 1.0
279 3 14.8200000000 -6.5922508115 -0.3880234545 1 1 1.0
280 2 15.2100000000 -6.2410456369 -0.5188205024 1 1 1.0
281 4 15.6000000000 -5.8779897675 -0.4258507329 1 1 1.0
282 4 15.9900000000 -5.6328759366 -0.1423509052 1 1 1.0
283 1 16.3800000000 -5.5933325144 0.2303275891 1 1 1.0
284 4 16.7700000000 -5.7734963027 0.5589519214 1 1 1.0
285 1 17.1600000000 -6.1089586181 0.7260386574 1 1 1.0
286 1 17.5500000000 -6.4797914425 0.6718541693 1 1 1.0
287 2 17.9400000000 -6.7534217754 0.4157694503 1 1 1.0
288 2 18.3300000000 -6.8320265769 0.0493349711 1 1 1.0
289 1 18.7200000000 -6.6875045740 -0.2964486796 1 1 1.0
290 4 19.1100000000 -6.3715224864 -0.4979635988 1 1 1.0
291 3 19.5000000000 -5.9970441367 -0.4831680587 1 1 1.0
292 1 19.8900000000 -5.6979458033 -0.2573514753 1 1 1.0
293 2 20.2800000000 -5.5811553546 0.0987565610 1 1 1.0
294 1 20.6700000000 -5.6884254598 0.4578471720 1 1 1.0
295 3 21.0600000000 -5.9814069793 0.6915452071 1 1 1.0
296 1 21.4500000000 -6.3553588101 0.7163034513 1 1 1.0
297 1 21.8400000000 -6.6765929047 0.5232708144 1 1 1.0
298 4 22.2300000000 -6.8302678441 0.1814566026 1 1 1.0
299 1 22.6200000000 -6.7614447274 -0.1869403585 1 1 1.0
300 1 23.0100000000 -6.4947278681 -0.4502178915 1 1 1.0
301 3 23.4000000000 -6.1254687346 -0.5142540896 1 1 1.0
302 3 23.7900000000 -5.7856777315 -0.3561559662 1 1 1.0
303 3 24.1800000000 -5.5968303860 -0.0324437136 1 1 1.0
304 3 24.5700000000 -5.6264397594 0.3411553059 1 1 1.0
305 2 24.9600000000 -5.8639204794 0.6310791753 1 1 1.0
306 2 25.3500000000 -6.2243730186 0.7336799034 1 1 1.0
307 2 25.7400000000 -6.5789353359 0.6122776564 1 1 1.0
308 4 26.1300000000 -6.8008511488 0.3102738247 1 1 1.0
309 1 26.5200000000 -6.8107853953 -0.0643650055 1 1 1.0
310 3 26.9100000000 -6.6051865750 -0.3777051841 1 1 1.0
311 4 27.3000000000 -6.2575564137 -0.5177273727 1 1 1.0
312 4 27.6900000000 -5.8921729429 -0.4343735385 1 1 1.0
313 4 28.0800000000 -5.6396610153 -0.1574427370 1 1 1.0
314 1 28.4700000000 -5.5902938259 0.2140620718 1 1 1.0
315 4 28.8600000000 -5.7617201803 0.5473276527 1 1 1.0
316 2 29.2500000000 -6.0926550340 0.7232113217 1 1 1.0
317 1 29.6400000000 -6.4647889396 0.6788345411 1 1 1.0
318 4 30.0300000000 -6.7450837594 0.4300620418 1 1 1.0
319 4 30.4200000000 -6.8333338943 0.0658301705 1 1 1.0
320 3 30.8100000000 -6.6979898580 -0.2836479179 1 1 1.0
321 4 31.2000000000 -6.3874372404 -0.4934335563 1 1 1.0
322 3 31.5900000000 -6.0126988247 -0.4885282287 1 1 1.0
323 1 31.9800000000 -5.7077438632 -0.2706855933 1 1 1.0
324 1 32.3700000000 -5.5815939729 0.0822154518 1 1 1.0
325 1 32.7600000000 -5.6793478301 0.4440125300 1 1 1.0
326 4 33.1500000000 -5.9660583608 0.6853629267 1 1 1.0
327 3 33.5400000000 -6.3392263449 0.7199837021 1 1 1.0
328 1 33.9300000000 -6.6654439606 0.5354979043 1 1 1.0
329 4 34.3200000000 -6.8280881766 0.1978593381 1 1 1.0
330 2 34.7100000000 -6.7690135693 -0.1722259671 1 1 1.0
331 1 35.1000000000 -6.5093393529 -0.4424522497 1 1 1.0
332 4 35.4900000000 -6.1418992460 -0.5162134198 1 1 1.0
333 2 35.8800000000 -5.7980533500 -0.3671398065 1 1 1.0
334 2 36.2700000000 -5.6007268191 -0.0485253332 1 1 1.0
335 3 36.6600000000 -5.6204640294 0.3257250975 1 1 1.0
336 3 37.0500000000 -5.8502089141 0.6218166886 1 1 1.0
337 4 37.4400000000 -6.2078275124 0.7338964841 1 1 1.0
338 2 37.8300000000 -6.5654709191 0.6218958768 1 1 1.0
339 3 38.2200000000 -6.7952813601 0.3258551640 1 1 1.0
340 2 38.6100000000 -6.8151014381 -0.0483908872 1 1 1.0
341 4 39.0000000000 -6.6178454610 -0.3670490456 1 1 1.0
342 3 39.3900000000 -6.2740325819 -0.5161987911 1 1 1.0
343 1 39.7800000000 -5.9065761515 -0.4425189829 1 1 1.0
344 3 40.1700000000 -5.6468421069 -0.1723502051 1 1 1.0
345 3 40.5600000000 -5.5876855551 0.1977220105 1 1 1.0
346 1 40.9500000000 -5.7502550058 0.5353965818 1 1 1.0
347 4 41.3400000000 -6.0764317639 0.7199546076 1 1 1.0
348 3 41.7300000000 -6.4496074046 0.6854164614 1 1 1.0
349 4 42.1200000000 -6.7363713691 0.4441295553 1 1 1.0
350 4 42.5100000000 -6.8342053346 0.0823541310 1 1 1.0
351 3 42.9000000000 -6.7081335883 -0.2705748380 1 1 1.0
352 1 43.2900000000 -6.4032268698 -0.4884849925 1 1 1.0
353 1 43.6800000000 -6.0284895495 -0.4934732961 1 1 1.0
354 1 44.0700000000 -5.7178904879 -0.2837564268 1 1 1.0
355 2 44.4600000000 -5.5824690719 0.0656916846 1 1 1.0
356 1 44.8500000000 -5.6706385550 0.4299430877 1 1 1.0
357 1 45.2400000000 -5.9508782836 0.6787776450 1 1 1.0
358 2 45.6300000000 -6.3230023540 0.7232368239 1 1 1.0
359 2 46.0200000000 -6.6539761445 0.5474264363 1 1 1.0
360 4 46.4100000000 -6.8254762878 0.2141988215 1 1 1.0
361 3 46.4100000000 -8.3854762878 0.2141988215 1 1 1.0
362 3 46.0200000000 -8.4347612158 -0.1573169093 1 1 1.0
363 2 45.6300000000 -8.6872118180 -0.4343036163 1 1 1.0
364 4 45.2400000000 -9.0525768232 -0.5177383532 1 1 1.0
365 1 44.8500000000 -9.4002379804 -0.3777931418 1 1 1.0
366 2 44.4600000000 -9.6059061767 -0.0644984955 1 1 1.0
367 3 44.0700000000 -9.5960548846 0.3101425253 1 1 1.0
368 4 43.6800000000 -9.3742059481 0.6121954871 1 1 1.0
369 1 43.2900000000 -9.0196705209 0.7336762398 1 1 1.0
370 1 42.9000000000 -8.6591952723 0.6311553271 1 1 1.0
371 2 42.5100000000 -8.4216503619 0.3412840489 1 1 1.0
372 2 42.1200000000 -8.3919582653 -0.0323084052 1 1 1.0
373 2 41.7300000000 -8.5807339285 -0.3560624653 1 1 1.0
374 4 41.3400000000 -8.9204899164 -0.5142358228 1 1 1.0
375 1 40.9500000000 -9.2897632201 -0.4502813892 1 1 1.0
376 4 40.5600000000 -9.5565383689 -0.1870629202 1 1 1.0
377 3 40.1700000000 -9.6254430559 0.1813187928 1 1 1.0
378 3 39.7800000000 -9.4718438062 0.5231670236 1 1 1.0
379 1 39.3900000000 -9.1506524616 0.7162707847 1 1 1.0
380 2 39.0000000000 -8.7766951579 0.6915953432 1 1 1.0
381 2 38.6100000000 -8.4836618992 0.4579621870 1 1 1.0
382 1 38.2200000000 -8.3763122852 0.0988953370 1 1 1.0
383 2 37.8300000000 -8.4930238801 -0.2572385508 1 1 1.0
384 3 37.4400000000 -8.7920722049 -0.4831213563 1 1 1.0
385 1 37.0500000000 -9.1665472693 -0.4979998147 1 1 1.0
386 4 36.6600000000 -9.4825739695 -0.2965548665 1 1 1.0
387 2 36.2700000000 -9.6271725337 0.0491967751 1 1 1.0
388 4 35.8800000000 -9.5486488717 0.4156486503 1 1 1.0
389 1 35.4900000000 -9.2750752488 0.6717939514 1 1 1.0
390 2 35.1000000000 -8.9042544312 0.7260605496 1 1 1.0
391 2 34.7100000000 -8.5687551270 0.5590480972 1 1 1.0
392 2 34.3200000000 -8.3885185777 0.2304636656 1 1 1.0
393 1 33.9300000000 -8.4279794789 -0.1422235755 1 1 1.0
394 4 33.5400000000 -8.6730305300 -0.4257776704 1 1 1.0
395 1 33.1500000000 -9.0360658048 -0.5188278270 1 1 1.0
396 1 32.7600000000 -9.3872999325 -0.3881085476 1 1 1.0
397 1 32.3700000000 -9.6011664606 -0.0803520683 1 1 1.0
398 3 31.9800000000 -9.6012079522 0.2944184490 1 1 1.0
399 1 31.5900000000 -9.3874095741 0.6022222760 1 1 1.0
400 2 31.2000000000 -9.0362043995 0.7330193239 1 1 1.0
401 3 30.8100000000 -8.6731485300 0.6400495544 1 1 1.0
402 2 30.4200000000 -8.4280346991 0.3565497267 1 1 1.0
403 3 30.0300000000 -8.3884912770 -0.0161287676 1 1 1.0
404 2 29.6400000000 -8.5686550653 -0.3447530999 1 1 1.0
405 2 29.2500000000 -8.9041173807 -0.5118398359 1 1 1.0
406 1 28.8600000000 -9.2749502050 -0.4576553478 1 1 1.0
407 2 28.4700000000 -9.5485805380 -0.2015706288 1 1 1.0
408 1 28.0800000000 -9.6271853395 0.1648638504 1 1 1.0
409 4 27.6900000000 -9.4826633366 0.5106475011 1 1 1.0
410 3 27.3000000000 -9.1666812490 0.7121624204 1 1 1.0
411 1 26.9100000000 -8.7922028993 0.6973668802 1 1 1.0
412 1 26.5200000000 -8.4931045658 0.4715502968 1 1 1.0
413 4 26.1300000000 -8.3763141172 0.1154422605 1 1 1.0
414 1 25.7400000000 -8.4835842224 -0.2436483505 1 1 1.0
415 1 25.3500000000 -8.7765657419 -0.4773463856 1 1 1.0
416 1 24.9600000000 -9.1505175727 -0.5021046297 1 1 1.0
417 3 24.5700000000 -9.4717516673 -0.3090719929 1 1 1.0
418 4 24.1800000000 -9.6254266067 0.0327422189 1 1 1.0
419 3 23.7900000000 -9.5566034900 0.4011391800 1 1 1.0
420 4 23.4000000000 -9.2898866307 0.6644167130 1 1 1.0
421 4 23.0100000000 -8.9206274972 0.7284529112 1 1 1.0
422 1 22.6200000000 -8.5808364941 0.5703547877 1 1 1.0
423 2 22.2300000000 -8.3919891486 0.2466425351 1 1 1.0
424 1 21.8400000000 -8.4215985220 -0.1269564844 1 1 1.0
425 4 21.4500000000 -8.6590792420 -0.4168803538 1 1 1.0
426 4 21.0600000000 -9.0195317812 -0.5194810818 1 1 1.0
427 3 20.6700000000 -9.3740940984 -0.3980788349 1 1 1.0
428 3 20.2800000000 -9.5960099114 -0.0960750032 1 1 1.0
429 4 19.8900000000 -9.6059441579 0.2785638271 1 1 1.0
430 1 19.5000000000 -9.4003453376 0.5919040056 1 1 1.0
431 1 19.1100000000 -9.0527151763 0.7319261942 1 1 1.0
432 1 18.7200000000 -8.6873317055 0.6485723600 1 1 1.0
433 4 18.3300000000 -8.4348197779 0.3716415585 1 1 1.0
434 4 17.9400000000 -8.3854525885 0.0001367497 1 1 1.0
435 2 17.5500000000 -8.5568789429 -0.3331288312 1 1 1.0
436 4 17.1600000000 -8.8878137966 -0.5090125002 1 1 1.0
437 3 16.7700000000 -9.2599477022 -0.4646357196 1 1 1.0
438 1 16.3800000000 -9.5402425220 -0.2158632203 1 1 1.0
439 2 15.9900000000 -9.6284926569 0.1483686510 1 1 1.0
440 3 15.6000000000 -9.4931486206 0.4978467394 1 1 1.0
441 4 15.2100000000 -9.1825960030 0.7076323778 1 1 1.0
442 1 14.8200000000 -8.8078575873 0.7027270502 1 1 1.0
443 3 14.4300000000 -8.5029026258 0.4848844148 1 1 1.0
444 1 14.0400000000 -8.3767527355 0.1319833697 1 1 1.0
445 2 13.6500000000 -8.4745065927 -0.2298137085 1 1 1.0
446 2 13.2600000000 -8.7612171234 -0.4711641051 1 1 1.0
447 3 12.8700000000 -9.1343851074 -0.5057848806 1 1 1.0
448 2 12.4800000000 -9.4606027231 -0.3212990828 1 1 1.0
449 3 12.0900000000 -9.6232469392 0.0163394834 1 1 1.0
450 3 11.7000000000 -9.5641723318 0.3864247886 1 1 1.0
451 3 11.3100000000 -9.3044981155 0.6566510712 1 1 1.0
452 4 10.9200000000 -8.9370580086 0.7304122414 1 1 1.0
453 1 10.5300000000 -8.5932121126 0.5813386280 1 1 1.0
454 2 10.1400000000 -8.3958855817 0.2627241548 1 1 1.0
455 1 9.7500000000 -8.4156227920 -0.1115262760 1 1 1.0
456 1 9.3600000000 -8.6453676767 -0.4076178671 1 1 1.0
457 3 8.9700000000 -9.0029862750 -0.5196976626 1 1 1.0
458 1 8.5800000000 -9.3606296817 -0.4076970553 1 1 1.0
459 1 8.1900000000 -9.5904401227 -0.1116563425 1 1 1.0
460 3 7.8000000000 -9.6102602007 0.2625897088 1 1 1.0
461 1 7.4100000000 -9.4130042235 0.5812478671 1 1 1.0
462 1 7.0200000000 -9.0691913445 0.7303976126 1 1 1.0
463 1 6.6300000000 -8.7017349141 0.6567178044 1 1 1.0
464 4 6.2400000000 -8.4420008694 0.3865490266 1 1 1.0
465 2 5.8500000000 -8.3828443177 0.0164768110 1 1 1.0
466 4 5.4600000000 -8.5454137684 -0.3211977603 1 1 1.0
467 4 5.0700000000 -8.8715905264 -0.5057557861 1 1 1.0
468 1 4.6800000000 -9.2447661672 -0.4712176399 1 1 1.0
469 3 4.2900000000 -9.5315301317 -0.2299307338 1 1 1.0
470 1 3.9000000000 -9.6293640972 0.1318446905 1 1 1.0
471 4 3.5100000000 -9.5032923509 0.4847736595 1 1 1.0
472 3 3.1200000000 -9.1983856324 0.7026838140 1 1 1.0
473 4 2.7300000000 -8.8236483121 0.7076721176 1 1 1.0
474 4 2.3400000000 -8.5130492505 0.4979552483 1 1 1.0
475 2 1.9500000000 -8.3776278345 0.1485071370 1 1 1.0
476 2 1.5600000000 -8.4657973175 -0.2157442661 1 1 1.0
477 1 1.1700000000 -8.7460370461 -0.4645788234 1 1 1.0
478 3 0.7800000000 -9.1181611166 -0.5090380024 1 1 1.0
479 3 0.3900000000 -9.4491349071 -0.3332276148 1 1 1.0
480 2 -0.0000000000 -9.6206350503 0.0000000000 1 1 1.0
481 4 -0.0000000000 -11.1806350503 0.0000000000 1 1 1.0
482 4 0.3900000000 -11.2299199783 0.3715157308 1 1 1.0
483 3 0.7800000000 -11.4823705806 0.6485024378 1 1 1.0
484 2 1.1700000000 -11.8477355858 0.7319371747 1 1 1.0
485 3 1.5600000000 -12.1953967430 0.5919919633 1 1 1.0
486 2 1.9500000000 -12.4010649393 0.2786973170 1 1 1.0
487 4 2.3400000000 -12.3912136472 -0.0959437038 1 1 1.0
488 3 2.7300000000 -12.1693647107 -0.3979966656 1 1 1.0
489 3 3.1200000000 -11.8148292835 -0.5194774183 1 1 1.0
490 4 3.5100000000 -11.4543540349 -0.4169565056 1 1 1.0
491 3 3.9000000000 -11.2168091245 -0.1270852274 1 1 1.0
492 4 4.2900000000 -11.1871170279 0.2465072267 1 1 1.0
493 3 4.6800000000 -11.3758926911 0.5702612868 1 1 1.0
494 4 5.0700000000 -11.7156486790 0.7284346443 1 1 1.0
495 4 5.4600000000 -12.0849219827 0.6644802107 1 1 1.0
496 4 5.8500000000 -12.3516971315 0.4012617417 1 1 1.0
497 4 6.2400000000 -12.4206018185 0.0328800287 1 1 1.0
498 4 6.6300000000 -12.2670025688 -0.3089682021 1 1 1.0
499 4 7.0200000000 -11.9458112242 -0.5020719632 1 1 1.0
500 4 7.4100000000 -11.5718539205 -0.4773965216 1 1 1.0
501 4 7.8000000000 -11.2788206617 -0.2437633655 1 1 1.0
502 3 8.1900000000 -11.1714710478 0.1153034845 1 1 1.0
503 2 8.5800000000 -11.2881826427 0.4714373723 1 1 1.0
504 1 8.9700000000 -11.5872309675 0.6973201778 1 1 1.0
505 2 9.3600000000 -11.9617060319 0.7121986362 1 1 1.0
506 2 9.7500000000 -12.2777327321 0.5107536880 1 1 1.0
507 3 10.1400000000 -12.4223312963 0.1650020464 1 1 1.0
508 4 10.5300000000 -12.3438076343 -0.2014498288 1 1 1.0
509 2 10.9200000000 -12.0702340114 -0.4575951299 1 1 1.0
510 1 11.3100000000 -11.6994131938 -0.5118617281 1 1 1.0
511 2 11.7000000000 -11.3639138896 -0.3448492757 1 1 1.0
512 3 12.0900000000 -11.1836773403 -0.0162648441 1 1 1.0
513 3 12.4800000000 -11.2231382415 0.3564223970 1 1 1.0
514 3 12.8700000000 -11.4681892926 0.6399764919 1 1 1.0
515 3 13.2600000000 -11.8312245674 0.7330266485 1 1 1.0
516 1 13.6500000000 -12.1824586950 0.6023073691 1 1 1.0
517 4 14.0400000000 -12.3963252232 0.2945508898 1 1 1.0
518 3 14.4300000000 -12.3963667148 -0.0802196275 1 1 1.0
519 3 14.8200000000 -12.1825683367 -0.3880234545 1 1 1.0
520 4 15.2100000000 -11.8313631621 -0.5188205024 1 1 1.0
521 4 15.6000000000 -11.4683072926 -0.4258507329 1 1 1.0
522 1 15.9900000000 -11.2231934617 -0.1423509052 1 1 1.0
523 1 16.3800000000 -11.1836500395 0.2303275891 1 1 1.0
524 3 16.7700000000 -11.3638138279 0.5589519214 1 1 1.0
525 3 17.1600000000 -11.6992761432 0.7260386574 1 1 1.0
526 4 17.5500000000 -12.0701089676 0.6718541693 1 1 1.0
527 1 17.9400000000 -12.3437393006 0.4157694503 1 1 1.0
528 1 18.3300000000 -12.4223441021 0.0493349711 1 1 1.0
529 1 18.7200000000 -12.2778220992 -0.2964486796 1 1 1.0
530 3 19.1100000000 -11.9618400115 -0.4979635988 1 1 1.0
531 2 19.5000000000 -11.5873616619 -0.4831680587 1 1 1.0
532 2 19.8900000000 -11.2882633284 -0.2573514753 1 1 1.0
533 4 20.2800000000 -11.1714728798 0.0987565610 1 1 1.0
534 2 20.6700000000 -11.2787429849 0.4578471720 1 1 1.0
535 3 21.0600000000 -11.5717245045 0.6915452071 1 1 1.0
536 2 21.4500000000 -11.9456763353 0.7163034513 1 1 1.0
537 3 21.8400000000 -12.2669104298 0.5232708144 1 1 1.0
538 2 22.2300000000 -12.4205853693 0.1814566026 1 1 1.0
539 1 22.6200000000 -12.3517622526 -0.1869403585 1 1 1.0
540 4 23.0100000000 -12.0850453933 -0.4502178915 1 1 1.0
541 2 23.4000000000 -11.7157862597 -0.5142540896 1 1 1.0