# LAMMPS data file
2701 atoms
2701 ellipsoids
2700 bonds

4 atom types
1 bond types

0.0 50.0 xlo xhi
0.0 50.0 ylo yhi
0.0 50.0 zlo zhi

Masses

1 3.1575
2 3.1575
3 3.1575
4 3.1575

Atoms

1 1 0.0000000000 0.0000000000 0.0000000000 1 1 1.0
2 4 0.3900000000 -0.0489409384 0.3711906994 1 1 1.0
3 3 0.7800000000 -0.3006669672 0.6483400402 1 1 1.0
4 4 1.1700000000 -0.6654517608 0.7326597006 1 1 1.0
5 1 1.5600000000 -1.0132698334 0.5940944122 1 1 1.0
6 2 1.9500000000 -1.2201433913 0.2820349920 1 1 1.0
7 2 2.3400000000 -1.2123335197 -0.0922867368 1 1 1.0
8 4 2.7300000000 -0.9926240034 -0.3954459015 1 1 1.0
9 1 3.1200000000 -0.6393290622 -0.5193831248 1 1 1.0
10 2 3.5100000000 -0.2783786889 -0.4199216813 1 1 1.0
11 3 3.9000000000 -0.0384316117 -0.1325140425 1 1 1.0
12 4 4.2900000000 -0.0050156152 0.2403949571 1 1 1.0
13 3 4.6800000000 -0.1900416432 0.5658840040 1 1 1.0
14 3 5.0700000000 -0.5275582099 0.7279343603 1 1 1.0
15 2 5.4600000000 -0.8972594354 0.6687840888 1 1 1.0
16 1 5.8500000000 -1.1673673994 0.4095169707 1 1 1.0
17 4 6.2400000000 -1.2416036391 0.0425473106 1 1 1.0
18 1 6.6300000000 -1.0935070647 -0.3013206225 1 1 1.0
19 3 7.0200000000 -0.7758658664 -0.4995170399 1 1 1.0
20 3 7.4100000000 -0.4019014608 -0.4813959446 1 1 1.0
21 4 7.8000000000 -0.1049113548 -0.2534164990 1 1 1.0
22 1 8.1900000000 0.0092440007 0.1031593072 1 1 1.0
23 1 8.5800000000 -0.1001254282 0.4612320355 1 1 1.0
24 2 8.9700000000 -0.3940355243 0.6931686781 1 1 1.0
25 4 9.3600000000 -0.7677236887 0.7162967245 1 1 1.0
26 1 9.7500000000 -1.0879908792 0.5223723129 1 1 1.0
27 2 10.1400000000 -1.2406796591 0.1805187079 1 1 1.0
28 1 10.5300000000 -1.1713649724 -0.1874122978 1 1 1.0
29 4 10.9200000000 -0.9047536489 -0.4502737688 1 1 1.0
30 3 11.3100000000 -0.5358777938 -0.5143702138 1 1 1.0
31 3 11.7000000000 -0.1962211287 -0.3568548159 1 1 1.0
32 2 12.0900000000 -0.0068523594 -0.0338730518 1 1 1.0
33 4 12.4800000000 -0.0352709175 0.3394500473 1 1 1.0
34 1 12.8700000000 -0.2713471680 0.6300455646 1 1 1.0
35 3 13.2600000000 -0.6309330606 0.7343323642 1 1 1.0
36 4 13.6500000000 -0.9858562286 0.6151380036 1 1 1.0
37 4 14.0400000000 -1.2096063070 0.3149486414 1 1 1.0
38 3 14.4300000000 -1.2224288402 -0.0592349143 1 1 1.0
39 3 14.8200000000 -1.0197533085 -0.3740370420 1 1 1.0
40 4 15.2100000000 -0.6738222640 -0.5172482957 1 1 1.0
41 3 15.6000000000 -0.3079408798 -0.4378218304 1 1 1.0
42 3 15.9900000000 -0.0525255151 -0.1640687624 1 1 1.0
43 1 16.3800000000 0.0013824614 0.2064331685 1 1 1.0
44 1 16.7700000000 -0.1654321451 0.5416206352 1 1 1.0
45 4 17.1600000000 -0.4935092072 0.7220179523 1 1 1.0
46 1 17.5500000000 -0.8659075034 0.6833235121 1 1 1.0
47 1 17.9400000000 -1.1498877578 0.4393297297 1 1 1.0
48 3 18.3300000000 -1.2442268077 0.0770068151 1 1 1.0
49 1 18.7200000000 -1.1152980298 -0.2744972688 1 1 1.0
50 1 19.1100000000 -0.8090573612 -0.4898908704 1 1 1.0
51 1 19.5000000000 -0.4346625639 -0.4923981532 1 1 1.0
52 3 19.8900000000 -0.1255645553 -0.2811254104 1 1 1.0
53 4 20.2800000000 0.0080604196 0.0686203784 1 1 1.0
54 4 20.6700000000 -0.0814175089 0.4321742961 1 1 1.0
55 2 21.0600000000 -0.3621044372 0.6799495956 1 1 1.0
56 2 21.4500000000 -0.7339510900 0.7236281665 1 1 1.0
57 2 21.8400000000 -1.0644148215 0.5476410282 1 1 1.0
58 4 22.2300000000 -1.2357036954 0.2147178052 1 1 1.0
59 2 22.6200000000 -1.1867627570 -0.1564728942 1 1 1.0
60 1 23.0100000000 -0.9350367282 -0.4336222351 1 1 1.0
61 4 23.4000000000 -0.5702519346 -0.5179418954 1 1 1.0
62 2 23.7900000000 -0.2224338621 -0.3793766070 1 1 1.0
63 3 24.1800000000 -0.0155603041 -0.0673171868 1 1 1.0
64 3 24.5700000000 -0.0233701757 0.3070045420 1 1 1.0
65 4 24.9600000000 -0.2430796921 0.6101637067 1 1 1.0
66 4 25.3500000000 -0.5963746332 0.7341009300 1 1 1.0
67 2 25.7400000000 -0.9573250065 0.6346394865 1 1 1.0
68 1 26.1300000000 -1.1972720838 0.3472318476 1 1 1.0
69 3 26.5200000000 -1.2306880803 -0.0256771519 1 1 1.0
70 1 26.9100000000 -1.0456620522 -0.3511661988 1 1 1.0
71 4 27.3000000000 -0.7081454855 -0.5132165551 1 1 1.0
72 2 27.6900000000 -0.3384442601 -0.4540662836 1 1 1.0
73 3 28.0800000000 -0.0683362960 -0.1947991655 1 1 1.0
74 4 28.4700000000 0.0058999436 0.1721704946 1 1 1.0
75 2 28.8600000000 -0.1421966307 0.5160384277 1 1 1.0
76 1 29.2500000000 -0.4598378290 0.7142348451 1 1 1.0
77 3 29.6400000000 -0.8338022346 0.6961137498 1 1 1.0
78 4 30.0300000000 -1.1307923407 0.4681343041 1 1 1.0
79 4 30.4200000000 -1.2449476961 0.1115584980 1 1 1.0
80 2 30.8100000000 -1.1355782672 -0.2465142304 1 1 1.0
81 2 31.2000000000 -0.8416681711 -0.4784508729 1 1 1.0
82 2 31.5900000000 -0.4679800068 -0.5015789193 1 1 1.0
83 3 31.9800000000 -0.1477128162 -0.3076545077 1 1 1.0
84 4 32.3700000000 0.0049759636 0.0341990973 1 1 1.0
85 1 32.7600000000 -0.0643387231 0.4021301029 1 1 1.0
86 1 33.1500000000 -0.3309500465 0.6649915740 1 1 1.0
87 1 33.5400000000 -0.6998259016 0.7290880190 1 1 1.0
88 4 33.9300000000 -1.0394825668 0.5715726211 1 1 1.0
89 4 34.3200000000 -1.2288513361 0.2485908570 1 1 1.0
90 2 34.7100000000 -1.2004327779 -0.1247322421 1 1 1.0
91 2 35.1000000000 -0.9643565274 -0.4153277594 1 1 1.0
92 2 35.4900000000 -0.6047706348 -0.5196145590 1 1 1.0
93 3 35.8800000000 -0.2498474669 -0.4004201984 1 1 1.0
94 2 36.2700000000 -0.0260973885 -0.1002308362 1 1 1.0
95 3 36.6600000000 -0.0132748552 0.2739527195 1 1 1.0
96 2 37.0500000000 -0.2159503869 0.5887548472 1 1 1.0
97 3 37.4400000000 -0.5618814314 0.7319661009 1 1 1.0
98 3 37.8300000000 -0.9277628157 0.6525396356 1 1 1.0
99 4 38.2200000000 -1.1831781803 0.3787865676 1 1 1.0
100 1 38.6100000000 -1.2370861568 0.0082846367 1 1 1.0
101 4 39.0000000000 -1.0702715504 -0.3269028300 1 1 1.0
102 4 39.3900000000 -0.7421944882 -0.5073001472 1 1 1.0
103 2 39.7800000000 -0.3697961920 -0.4686057069 1 1 1.0
104 1 40.1700000000 -0.0858159376 -0.2246119245 1 1 1.0
105 4 40.5600000000 0.0085231123 0.1377109901 1 1 1.0
106 4 40.9500000000 -0.1204056656 0.4892150739 1 1 1.0
107 1 41.3400000000 -0.4266463342 0.7046086756 1 1 1.0
108 1 41.7300000000 -0.8010411316 0.7071159584 1 1 1.0
109 3 42.1200000000 -1.1101391401 0.4958432156 1 1 1.0
110 2 42.5100000000 -1.2437641151 0.1460974268 1 1 1.0
111 3 42.9000000000 -1.1542861865 -0.2174564909 1 1 1.0
112 2 43.2900000000 -0.8735992583 -0.4652317904 1 1 1.0
113 2 43.6800000000 -0.5017526055 -0.5089103613 1 1 1.0
114 1 44.0700000000 -0.1712888739 -0.3329232230 1 1 1.0
115 2 44.4600000000 0.0000000000 -0.0000000000 1 1 1.0
116 2 44.8500000000 -0.0489409384 0.3711906994 1 1 1.0
117 2 45.2400000000 -0.3006669672 0.6483400402 1 1 1.0
118 3 45.6300000000 -0.6654517608 0.7326597006 1 1 1.0
119 3 46.0200000000 -1.0132698334 0.5940944122 1 1 1.0
120 1 46.4100000000 -1.2201433913 0.2820349920 1 1 1.0
121 3 46.8000000000 -1.2123335197 -0.0922867368 1 1 1.0
122 3 47.1900000000 -0.9926240034 -0.3954459015 1 1 1.0
123 2 47.5800000000 -0.6393290622 -0.5193831248 1 1 1.0
124 1 47.9700000000 -0.2783786889 -0.4199216813 1 1 1.0
125 3 48.3600000000 -0.0384316117 -0.1325140425 1 1 1.0
126 1 48.7500000000 -0.0050156152 0.2403949571 1 1 1.0
127 3 49.1400000000 -0.1900416432 0.5658840040 1 1 1.0
128 1 49.5300000000 -0.5275582099 0.7279343603 1 1 1.0
129 3 49.9200000000 -0.8972594354 0.6687840888 1 1 1.0
130 3 50.3100000000 -1.1673673994 0.4095169707 1 1 1.0
131 3 50.7000000000 -1.2416036391 0.0425473106 1 1 1.0
132 1 51.0900000000 -1.0935070647 -0.3013206225 1 1 1.0
133 2 51.4800000000 -0.7758658664 -0.4995170399 1 1 1.0
134 1 51.8700000000 -0.4019014608 -0.4813959446 1 1 1.0
135 3 52.2600000000 -0.1049113548 -0.2534164990 1 1 1.0
136 4 52.6500000000 0.0092440007 0.1031593072 1 1 1.0
137 1 53.0400000000 -0.1001254282 0.4612320355 1 1 1.0
138 3 53.4300000000 -0.3940355243 0.6931686781 1 1 1.0
139 1 53.8200000000 -0.7677236887 0.7162967245 1 1 1.0
140 4 54.2100000000 -1.0879908792 0.5223723129 1 1 1.0
141 2 54.6000000000 -1.2406796591 0.1805187079 1 1 1.0
142 1 54.9900000000 -1.1713649724 -0.1874122978 1 1 1.0
143 3 55.3800000000 -0.9047536489 -0.4502737688 1 1 1.0
144 1 55.7700000000 -0.5358777938 -0.5143702138 1 1 1.0
145 3 56.1600000000 -0.1962211287 -0.3568548159 1 1 1.0
146 2 56.5500000000 -0.0068523594 -0.0338730518 1 1 1.0
147 3 56.9400000000 -0.0352709175 0.3394500473 1 1 1.0
148 1 57.3300000000 -0.2713471680 0.6300455646 1 1 1.0
149 2 57.7200000000 -0.6309330606 0.7343323642 1 1 1.0
150 2 58.1100000000 -0.9858562286 0.6151380036 1 1 1.0
151 1 58.5000000000 -1.2096063070 0.3149486414 1 1 1.0
152 2 58.8900000000 -1.2224288402 -0.0592349143 1 1 1.0
153 2 59.2800000000 -1.0197533085 -0.3740370420 1 1 1.0
154 4 59.6700000000 -0.6738222640 -0.5172482957 1 1 1.0
155 4 60.0600000000 -0.3079408798 -0.4378218304 1 1 1.0
156 1 60.4500000000 -0.0525255151 -0.1640687624 1 1 1.0
157 4 60.8400000000 0.0013824614 0.2064331685 1 1 1.0
158 3 61.2300000000 -0.1654321451 0.5416206352 1 1 1.0
159 4 61.6200000000 -0.4935092072 0.7220179523 1 1 1.0
160 4 62.0100000000 -0.8659075034 0.6833235121 1 1 1.0
161 2 62.4000000000 -1.1498877578 0.4393297297 1 1 1.0
162 2 62.7900000000 -1.2442268077 0.0770068151 1 1 1.0
163 4 63.1800000000 -1.1152980298 -0.2744972688 1 1 1.0
164 1 63.5700000000 -0.8090573612 -0.4898908704 1 1 1.0
165 1 63.9600000000 -0.4346625639 -0.4923981532 1 1 1.0
166 3 64.3500000000 -0.1255645553 -0.2811254104 1 1 1.0
167 3 64.7400000000 0.0080604196 0.0686203784 1 1 1.0
168 3 65.1300000000 -0.0814175089 0.4321742961 1 1 1.0
169 3 65.5200000000 -0.3621044372 0.6799495956 1 1 1.0
170 4 65.9100000000 -0.7339510900 0.7236281665 1 1 1.0
171 3 66.3000000000 -1.0644148215 0.5476410282 1 1 1.0
172 1 66.6900000000 -1.2357036954 0.2147178052 1 1 1.0
173 4 66.6900000000 -2.7957036954 0.2147178052 1 1 1.0
174 4 66.3000000000 -2.8441366794 -0.1559918295 1 1 1.0
175 3 65.9100000000 -3.0947915680 -0.4333787687 1 1 1.0
176 2 65.5200000000 -3.4587146016 -0.5190024383 1 1 1.0
177 4 65.1300000000 -3.8067548100 -0.3824762485 1 1 1.0
178 2 64.7400000000 -4.0153978058 -0.0722513503 1 1 1.0
179 3 64.3500000000 -4.0105992367 0.3015779702 1 1 1.0
180 3 63.9600000000 -3.7940620447 0.6063451464 1 1 1.0
181 4 63.5700000000 -3.4426321171 0.7338927579 1 1 1.0
182 1 63.1800000000 -3.0810268033 0.6389560201 1 1 1.0
183 3 62.7900000000 -2.8375745485 0.3552265947 1 1 1.0
184 2 62.4000000000 -2.7986730027 -0.0166040884 1 1 1.0
185 1 62.0100000000 -2.9781277564 -0.3445787498 1 1 1.0
186 1 61.6200000000 -3.3122529383 -0.5123039717 1 1 1.0
187 3 61.2300000000 -3.6824724004 -0.4602565221 1 1 1.0
188 3 60.8400000000 -3.9574006622 -0.2069072808 1 1 1.0
189 4 60.4500000000 -4.0394696983 0.1578338061 1 1 1.0
190 1 60.0600000000 -3.8995544064 0.5045254534 1 1 1.0
191 3 59.6700000000 -3.5873086802 0.7101318581 1 1 1.0
192 2 59.2800000000 -3.2135439683 0.7016863098 1 1 1.0
193 2 58.8900000000 -2.9109039086 0.4821860103 1 1 1.0
194 4 58.5000000000 -2.7867910390 0.1295284104 1 1 1.0
195 2 58.1100000000 -2.8852512043 -0.2311334576 1 1 1.0
196 2 57.7200000000 -3.1713423297 -0.4718059636 1 1 1.0
197 4 57.3300000000 -3.5435348527 -0.5070779498 1 1 1.0
198 1 56.9400000000 -3.8697430820 -0.3244319033 1 1 1.0
199 3 56.5500000000 -4.0342004809 0.0113137610 1 1 1.0
200 3 56.1600000000 -3.9785435199 0.3810078101 1 1 1.0
201 4 55.7700000000 -3.7225240419 0.6534512244 1 1 1.0
202 3 55.3800000000 -3.3569996208 0.7319578150 1 1 1.0
203 4 54.9900000000 -3.0116895359 0.5886667392 1 1 1.0
204 3 54.6000000000 -2.8091392936 0.2744299073 1 1 1.0
205 2 54.2100000000 -2.8212310170 -0.0992346180 1 1 1.0
206 1 53.8200000000 -3.0436735302 -0.3997187532 1 1 1.0
207 2 53.4300000000 -3.3975252335 -0.5203850669 1 1 1.0
208 2 53.0400000000 -3.7572093248 -0.4184108464 1 1 1.0
209 2 52.6500000000 -3.9950791726 -0.1299852535 1 1 1.0
210 2 52.2600000000 -4.0267182418 0.2425336809 1 1 1.0
211 1 51.8700000000 -3.8408982885 0.5669444269 1 1 1.0
212 2 51.4800000000 -3.5035641007 0.7281183483 1 1 1.0
213 1 51.0900000000 -3.1344306555 0.6688571739 1 1 1.0
214 2 50.7000000000 -2.8644980219 0.4101918292 1 1 1.0
215 2 50.3100000000 -2.7895613499 0.0439188677 1 1 1.0
216 4 49.9200000000 -2.9362145699 -0.2999767854 1 1 1.0
217 4 49.5300000000 -3.2524125958 -0.4994515848 1 1 1.0
218 2 49.1400000000 -3.6259413657 -0.4837148371 1 1 1.0
219 3 48.7500000000 -3.9242409739 -0.2583512844 1 1 1.0
220 4 48.3600000000 -4.0414492456 0.0966608397 1 1 1.0
221 2 47.9700000000 -3.9359706768 0.4553329165 1 1 1.0
222 4 47.5800000000 -3.6452380712 0.6903774638 1 1 1.0
223 3 47.1900000000 -3.2724281849 0.7183806042 1 1 1.0
224 4 46.8000000000 -2.9498458023 0.5294044320 1 1 1.0
225 1 46.4100000000 -2.7919707004 0.1905138311 1 1 1.0
226 2 46.0200000000 -2.8548304471 -0.1780238731 1 1 1.0
227 4 45.6300000000 -3.1161170365 -0.4454200312 1 1 1.0
228 2 45.2400000000 -3.4831036735 -0.5167796517 1 1 1.0
229 1 44.8500000000 -3.8255521599 -0.3667782471 1 1 1.0
230 4 44.4600000000 -4.0219325287 -0.0486491257 1 1 1.0
231 1 44.0700000000 -4.0025522548 0.3247083333 1 1 1.0
232 3 43.6800000000 -3.7742891144 0.6207950198 1 1 1.0
233 4 43.2900000000 -3.4181503626 0.7345340926 1 1 1.0
234 4 42.9000000000 -3.0605244417 0.6255612157 1 1 1.0
235 2 42.5100000000 -2.8283275686 0.3325492718 1 1 1.0
236 4 42.1200000000 -2.8039630226 -0.0405160792 1 1 1.0
237 4 41.7300000000 -2.9960774253 -0.3612393921 1 1 1.0
238 4 41.3400000000 -3.3364921807 -0.5158006468 1 1 1.0
239 2 40.9500000000 -3.7043990633 -0.4493483111 1 1 1.0
240 4 40.5600000000 -3.9692332931 -0.1854653485 1 1 1.0
241 2 40.1700000000 -4.0370090693 0.1822000311 1 1 1.0
242 1 39.7800000000 -3.8836737587 0.5231687535 1 1 1.0
243 2 39.3900000000 -3.5636438239 0.7164359986 1 1 1.0
244 2 39.0000000000 -3.1904932152 0.6934140432 1 1 1.0
245 1 38.6100000000 -2.8966476345 0.4622730432 1 1 1.0
246 2 38.2200000000 -2.7863885873 0.1050415640 1 1 1.0
247 2 37.8300000000 -2.8988453992 -0.2515041590 1 1 1.0
248 3 37.4400000000 -3.1941087900 -0.4808312556 1 1 1.0
249 1 37.0500000000 -3.5673940941 -0.5015548880 1 1 1.0
250 2 36.6600000000 -3.8862278082 -0.3063205418 1 1 1.0
251 1 36.2700000000 -4.0374605032 0.0355859646 1 1 1.0
252 4 35.8800000000 -3.9674219041 0.4028270051 1 1 1.0
253 1 35.4900000000 -3.7009676869 0.6650740973 1 1 1.0
254 2 35.1000000000 -3.3326585623 0.7292595778 1 1 1.0
255 1 34.7100000000 -2.9932020600 0.5726049569 1 1 1.0
256 2 34.3200000000 -2.8030663356 0.2507046719 1 1 1.0
257 2 33.9300000000 -2.8297277811 -0.1222035669 1 1 1.0
258 1 33.5400000000 -3.0637246387 -0.4137800711 1 1 1.0
259 4 33.1500000000 -3.4220148409 -0.5205485973 1 1 1.0
260 4 32.7600000000 -3.7774464270 -0.4046185549 1 1 1.0
261 1 32.3700000000 -4.0038819177 -0.1071318229 1 1 1.0
262 1 31.9800000000 -4.0209626639 0.2663379019 1 1 1.0
263 1 31.5900000000 -3.8226269583 0.5832516678 1 1 1.0
264 4 31.2000000000 -3.4792612464 0.7311414075 1 1 1.0
265 3 30.8100000000 -3.1127210052 0.6575232118 1 1 1.0
266 1 30.4200000000 -2.8530860135 0.3885231035 1 1 1.0
267 1 30.0300000000 -2.7924969385 0.0196052926 1 1 1.0
268 1 29.6400000000 -2.9524559580 -0.3183066771 1 1 1.0
269 3 29.2500000000 -3.2761959519 -0.5052927822 1 1 1.0
270 1 28.8600000000 -3.6488263241 -0.4749943846 1 1 1.0
271 4 28.4700000000 -3.9381059971 -0.2381639431 1 1 1.0
272 4 28.0800000000 -4.0413738393 0.1211508770 1 1 1.0
273 1 27.6900000000 -3.9219816016 0.4754344933 1 1 1.0
274 4 27.3000000000 -3.6222998456 0.6989568240 1 1 1.0
275 1 26.9100000000 -3.2486812503 0.7123930581 1 1 1.0
276 2 26.5200000000 -2.9337175990 0.5109748723 1 1 1.0
277 4 26.1300000000 -2.7891848921 0.1661826395 1 1 1.0
278 3 25.7400000000 -2.8663756767 -0.1996219121 1 1 1.0
279 2 25.3500000000 -3.1378960705 -0.4566200890 1 1 1.0
280 2 24.9600000000 -3.5073874508 -0.5136069912 1 1 1.0
281 3 24.5700000000 -3.8437227226 -0.3503587994 1 1 1.0
282 3 24.1800000000 -4.0275414094 -0.0248099128 1 1 1.0
283 2 23.7900000000 -3.9936089437 0.3475071227 1 1 1.0
284 2 23.4000000000 -3.7539674620 0.6344624284 1 1 1.0
285 3 23.0100000000 -3.3936622266 0.7342197566 1 1 1.0
286 4 22.6200000000 -3.0405603040 0.6113766884 1 1 1.0
287 1 22.2300000000 -2.8199724100 0.3095284348 1 1 1.0
288 1 21.8400000000 -2.8101819669 -0.0642034670 1 1 1.0
289 3 21.4500000000 -3.0146634601 -0.3771870227 1 1 1.0
290 4 21.0600000000 -3.3608493936 -0.5183489390 1 1 1.0
291 2 20.6700000000 -3.7258834352 -0.4375929132 1 1 1.0
292 3 20.2800000000 -3.9802203340 -0.1635780795 1 1 1.0
293 1 19.8900000000 -4.0335996389 0.2064516990 1 1 1.0
294 1 19.5000000000 -3.8670778141 0.5411782576 1 1 1.0
295 1 19.1100000000 -3.5397510234 0.7218120288 1 1 1.0
296 4 18.7200000000 -3.1677827649 0.6842487249 1 1 1.0
297 2 18.3300000000 -2.8831791414 0.4418190140 1 1 1.0
298 3 17.9400000000 -2.7869418230 0.0805576603 1 1 1.0
299 4 17.5500000000 -2.9132240284 -0.2713289575 1 1 1.0
300 4 17.1600000000 -3.2172100472 -0.4889614173 1 1 1.0
301 4 16.7700000000 -3.5910196804 -0.4951051373 1 1 1.0
302 3 16.3800000000 -3.9019933481 -0.2875798010 1 1 1.0
303 3 15.9900000000 -4.0397710367 0.0599668803 1 1 1.0
304 3 15.6000000000 -3.9554574567 0.4241956647 1 1 1.0
305 1 15.2100000000 -3.6789742663 0.6758470756 1 1 1.0
306 3 14.8200000000 -3.3084413122 0.7256137021 1 1 1.0
307 1 14.4300000000 -2.9753553289 0.5558340952 1 1 1.0
308 3 14.0400000000 -2.7979236677 0.2267605582 1 1 1.0
309 2 13.6500000000 -2.8391142341 -0.1448235163 1 1 1.0
310 4 13.2600000000 -3.0843090976 -0.4270483665 1 1 1.0
311 1 12.8700000000 -3.4464921818 -0.5197565146 1 1 1.0
312 4 12.4800000000 -3.7971299991 -0.3900471925 1 1 1.0
313 3 12.0900000000 -4.0117863086 -0.0839523445 1 1 1.0
314 4 11.7000000000 -4.0142827208 0.2898994377 1 1 1.0
315 1 11.3100000000 -3.8037332954 0.5988336162 1 1 1.0
316 4 10.9200000000 -3.4548589488 0.7332139625 1 1 1.0
317 3 10.5300000000 -3.0914700919 0.6453508539 1 1 1.0
318 4 10.1400000000 -2.8425281233 0.3664256247 1 1 1.0
319 2 9.7500000000 -2.7963789124 -0.0045752345 1 1 1.0
320 4 9.3600000000 -2.9694001402 -0.3359889365 1 1 1.0
321 3 8.9700000000 -3.3001890996 -0.5102015983 1 1 1.0
322 3 8.5800000000 -3.6713536195 -0.4653876903 1 1 1.0
323 3 8.1900000000 -3.9511728320 -0.2174510139 1 1 1.0
324 2 7.8000000000 -4.0403429848 0.1456193251 1 1 1.0
325 2 7.4100000000 -3.9072188929 0.4949749653 1 1 1.0
326 2 7.0200000000 -3.5990443525 0.7066346918 1 1 1.0
327 3 6.6300000000 -3.2251860076 0.7054835585 1 1 1.0
328 4 6.2400000000 -2.9183207252 0.4919300859 1 1 1.0
329 2 5.8500000000 -2.7873505129 0.1417612828 1 1 1.0
330 4 5.4600000000 -2.8787547865 -0.2207530562 1 1 1.0
331 4 5.0700000000 -3.1600955039 -0.4669618860 1 1 1.0
332 1 4.6800000000 -3.5315289532 -0.5094892884 1 1 1.0
333 1 4.2900000000 -3.8612388272 -0.3332429093 1 1 1.0
334 2 3.9000000000 -4.0322159066 -0.0007700149 1 1 1.0
335 4 3.9000000000 -5.5922159066 -0.0007700149 1 1 1.0
336 2 4.2900000000 -5.6406488905 0.3699396197 1 1 1.0
337 3 4.6800000000 -5.8913037791 0.6473265589 1 1 1.0
338 4 5.0700000000 -6.2552268127 0.7329502286 1 1 1.0
339 2 5.4600000000 -6.6032670211 0.5964240388 1 1 1.0
340 2 5.8500000000 -6.8119100169 0.2861991406 1 1 1.0
341 2 6.2400000000 -6.8071114478 -0.0876301800 1 1 1.0
342 4 6.6300000000 -6.5905742558 -0.3923973561 1 1 1.0
343 4 7.0200000000 -6.2391443282 -0.5199449677 1 1 1.0
344 4 7.4100000000 -5.8775390144 -0.4250082298 1 1 1.0
345 4 7.8000000000 -5.6340867596 -0.1412788045 1 1 1.0
346 3 8.1900000000 -5.5951852138 0.2305518786 1 1 1.0
347 2 8.5800000000 -5.7746399676 0.5585265401 1 1 1.0
348 4 8.9700000000 -6.1087651494 0.7262517619 1 1 1.0
349 1 9.3600000000 -6.4789846116 0.6742043123 1 1 1.0
350 3 9.7500000000 -6.7539128733 0.4208550710 1 1 1.0
351 4 10.1400000000 -6.8359819095 0.0561139841 1 1 1.0
352 3 10.5300000000 -6.6960666175 -0.2905776631 1 1 1.0
353 2 10.9200000000 -6.3838208913 -0.4961840679 1 1 1.0
354 1 11.3100000000 -6.0100561794 -0.4877385196 1 1 1.0
355 2 11.7000000000 -5.7074161198 -0.2682382201 1 1 1.0
356 1 12.0900000000 -5.5833032501 0.0844193798 1 1 1.0
357 3 12.4800000000 -5.6817634154 0.4450812478 1 1 1.0
358 1 12.8700000000 -5.9678545408 0.6857537538 1 1 1.0
359 3 13.2600000000 -6.3400470638 0.7210257400 1 1 1.0
360 4 13.6500000000 -6.6662552932 0.5383796936 1 1 1.0
361 1 14.0400000000 -6.8307126920 0.2026340292 1 1 1.0
362 3 14.4300000000 -6.7750557311 -0.1670600198 1 1 1.0
363 3 14.8200000000 -6.5190362530 -0.4395034342 1 1 1.0
364 4 15.2100000000 -6.1535118319 -0.5180100247 1 1 1.0
365 2 15.6000000000 -5.8082017470 -0.3747189489 1 1 1.0
366 1 15.9900000000 -5.6056515047 -0.0604821170 1 1 1.0
367 4 16.3800000000 -5.6177432282 0.3131824082 1 1 1.0
368 2 16.7700000000 -5.8401857413 0.6136665434 1 1 1.0
369 2 17.1600000000 -6.1940374446 0.7343328571 1 1 1.0
370 3 17.5500000000 -6.5537215359 0.6323586367 1 1 1.0
371 4 17.9400000000 -6.7915913838 0.3439330438 1 1 1.0
372 1 18.3300000000 -6.8232304529 -0.0285858906 1 1 1.0
373 2 18.7200000000 -6.6374104996 -0.3529966367 1 1 1.0
374 4 19.1100000000 -6.3000763118 -0.5141705580 1 1 1.0
375 1 19.5000000000 -5.9309428666 -0.4549093837 1 1 1.0
376 2 19.8900000000 -5.6610102331 -0.1962440390 1 1 1.0
377 4 20.2800000000 -5.5860735610 0.1700289225 1 1 1.0
378 4 20.6700000000 -5.7327267810 0.5139245757 1 1 1.0
379 4 21.0600000000 -6.0489248070 0.7133993751 1 1 1.0
380 2 21.4500000000 -6.4224535769 0.6976626274 1 1 1.0
381 3 21.8400000000 -6.7207531851 0.4722990746 1 1 1.0
382 4 22.2300000000 -6.8379614568 0.1172869505 1 1 1.0
383 2 22.6200000000 -6.7324828879 -0.2413851263 1 1 1.0
384 3 23.0100000000 -6.4417502823 -0.4764296736 1 1 1.0
385 1 23.4000000000 -6.0689403960 -0.5044328139 1 1 1.0
386 3 23.7900000000 -5.7463580135 -0.3154566417 1 1 1.0
387 2 24.1800000000 -5.5884829115 0.0234339591 1 1 1.0
388 4 24.5700000000 -5.6513426583 0.3919716633 1 1 1.0
389 2 24.9600000000 -5.9126292476 0.6593678215 1 1 1.0
390 1 25.3500000000 -6.2796158847 0.7307274419 1 1 1.0
391 2 25.7400000000 -6.6220643710 0.5807260374 1 1 1.0
392 2 26.1300000000 -6.8184447398 0.2625969159 1 1 1.0
393 2 26.5200000000 -6.7990644659 -0.1107605431 1 1 1.0
394 3 26.9100000000 -6.5708013255 -0.4068472295 1 1 1.0
395 3 27.3000000000 -6.2146625737 -0.5205863023 1 1 1.0
396 3 27.6900000000 -5.8570366529 -0.4116134254 1 1 1.0
397 1 28.0800000000 -5.6248397797 -0.1186014815 1 1 1.0
398 1 28.4700000000 -5.6004752337 0.2544638694 1 1 1.0
399 3 28.8600000000 -5.7925896364 0.5751871823 1 1 1.0
400 3 29.2500000000 -6.1330043919 0.7297484370 1 1 1.0
401 4 29.6400000000 -6.5009112745 0.6632961013 1 1 1.0
402 3 30.0300000000 -6.7657455042 0.3994131388 1 1 1.0
403 4 30.4200000000 -6.8335212804 0.0317477592 1 1 1.0
404 1 30.8100000000 -6.6801859698 -0.3092209633 1 1 1.0
405 3 31.2000000000 -6.3601560350 -0.5024882083 1 1 1.0
406 1 31.5900000000 -5.9870054263 -0.4794662529 1 1 1.0
407 4 31.9800000000 -5.6931598456 -0.2483252529 1 1 1.0
408 2 32.3700000000 -5.5829007984 0.1089062262 1 1 1.0
409 4 32.7600000000 -5.6953576103 0.4654519493 1 1 1.0
410 1 33.1500000000 -5.9906210012 0.6947790458 1 1 1.0
411 1 33.5400000000 -6.3639063052 0.7155026783 1 1 1.0
412 2 33.9300000000 -6.6827400193 0.5202683321 1 1 1.0
413 2 34.3200000000 -6.8339727143 0.1783618256 1 1 1.0
414 3 34.7100000000 -6.7639341152 -0.1888792149 1 1 1.0
415 3 35.1000000000 -6.4974798981 -0.4511263070 1 1 1.0
416 2 35.4900000000 -6.1291707734 -0.5153117875 1 1 1.0
417 1 35.8800000000 -5.7897142712 -0.3586571666 1 1 1.0
418 2 36.2700000000 -5.5995785468 -0.0367568816 1 1 1.0
419 2 36.6600000000 -5.6262399922 0.3361513571 1 1 1.0
420 1 37.0500000000 -5.8602368498 0.6277278613 1 1 1.0
421 1 37.4400000000 -6.2185270520 0.7344963876 1 1 1.0
422 1 37.8300000000 -6.5739586381 0.6185663452 1 1 1.0
423 4 38.2200000000 -6.8003941288 0.3210796131 1 1 1.0
424 3 38.6100000000 -6.8174748750 -0.0523901116 1 1 1.0
425 2 39.0000000000 -6.6191391694 -0.3693038776 1 1 1.0
426 1 39.3900000000 -6.2757734575 -0.5171936172 1 1 1.0
427 1 39.7800000000 -5.9092332163 -0.4435754216 1 1 1.0
428 3 40.1700000000 -5.6495982246 -0.1745753132 1 1 1.0
429 2 40.5600000000 -5.5890091496 0.1943424976 1 1 1.0
430 4 40.9500000000 -5.7489681691 0.5322544673 1 1 1.0
431 1 41.3400000000 -6.0727081630 0.7192405724 1 1 1.0
432 1 41.7300000000 -6.4453385352 0.6889421748 1 1 1.0
433 4 42.1200000000 -6.7346182082 0.4521117334 1 1 1.0
434 4 42.5100000000 -6.8378860504 0.0927969133 1 1 1.0
435 1 42.9000000000 -6.7184938127 -0.2614867030 1 1 1.0
436 3 43.2900000000 -6.4188120567 -0.4850090337 1 1 1.0
437 1 43.6800000000 -6.0451934614 -0.4984452678 1 1 1.0
438 3 44.0700000000 -5.7302298101 -0.2970270821 1 1 1.0
439 4 44.4600000000 -5.5856971032 0.0477651507 1 1 1.0
440 1 44.8500000000 -5.6628878878 0.4135697023 1 1 1.0
441 4 45.2400000000 -5.9344082816 0.6705678792 1 1 1.0
442 3 45.6300000000 -6.3038996619 0.7275547814 1 1 1.0
443 2 46.0200000000 -6.6402349337 0.5643065896 1 1 1.0
444 1 46.4100000000 -6.8240536206 0.2387577030 1 1 1.0
445 4 46.8000000000 -6.7901211548 -0.1335593325 1 1 1.0
446 2 47.1900000000 -6.5504796731 -0.4205146381 1 1 1.0
447 2 47.5800000000 -6.1901744377 -0.5202719663 1 1 1.0
448 2 47.9700000000 -5.8370725151 -0.3974288981 1 1 1.0
449 3 48.3600000000 -5.6164846211 -0.0955806445 1 1 1.0
450 2 48.7500000000 -5.6066941781 0.2781512573 1 1 1.0
451 3 49.1400000000 -5.8111756712 0.5911348130 1 1 1.0
452 1 49.5300000000 -6.1573616048 0.7322967292 1 1 1.0
453 1 49.9200000000 -6.5223956463 0.6515407034 1 1 1.0
454 3 50.3100000000 -6.7767325451 0.3775258698 1 1 1.0
455 3 50.7000000000 -6.8301118501 0.0074960912 1 1 1.0
456 2 51.0900000000 -6.6635900253 -0.3272304674 1 1 1.0
457 3 51.4800000000 -6.3362632346 -0.5078642385 1 1 1.0
458 1 51.8700000000 -5.9642949760 -0.4703009347 1 1 1.0
459 3 52.2600000000 -5.6796913526 -0.2278712238 1 1 1.0
460 1 52.6500000000 -5.5834540341 0.1333901300 1 1 1.0
461 3 53.0400000000 -5.7097362396 0.4852767477 1 1 1.0
462 1 53.4300000000 -6.0137222583 0.7029092076 1 1 1.0
463 4 53.8200000000 -6.3875318915 0.7090529276 1 1 1.0
464 2 54.2100000000 -6.6985055592 0.5015275913 1 1 1.0
465 1 54.6000000000 -6.8362832479 0.1539809100 1 1 1.0
466 1 54.9900000000 -6.7519696678 -0.2102478744 1 1 1.0
467 3 55.3800000000 -6.4754864774 -0.4618992853 1 1 1.0
468 2 55.7700000000 -6.1049535233 -0.5116659118 1 1 1.0
469 3 56.1600000000 -5.7718675400 -0.3418863050 1 1 1.0
470 1 56.5500000000 -5.5944358788 -0.0128127680 1 1 1.0
471 4 56.9400000000 -5.6356264452 0.3587713065 1 1 1.0
472 3 57.3300000000 -5.8808213087 0.6409961568 1 1 1.0
473 3 57.7200000000 -6.2430043929 0.7337043048 1 1 1.0
474 4 58.1100000000 -6.5936422102 0.6039949827 1 1 1.0
475 2 58.5000000000 -6.8082985198 0.2979001348 1 1 1.0
476 4 58.8900000000 -6.8107949320 -0.0759516475 1 1 1.0
477 1 59.2800000000 -6.6002455066 -0.3848858260 1 1 1.0
478 1 59.6700000000 -6.2513711599 -0.5192661722 1 1 1.0
479 1 60.0600000000 -5.8879823030 -0.4314030637 1 1 1.0
480 3 60.4500000000 -5.6390403345 -0.1524778345 1 1 1.0
481 1 60.8400000000 -5.5928911236 0.2185230247 1 1 1.0
482 3 61.2300000000 -5.7659123514 0.5499367268 1 1 1.0
483 3 61.6200000000 -6.0967013107 0.7241493886 1 1 1.0
484 3 62.0100000000 -6.4678658306 0.6793354805 1 1 1.0
485 3 62.4000000000 -6.7476850431 0.4313988041 1 1 1.0
486 1 62.7900000000 -6.8368551959 0.0683284652 1 1 1.0
487 4 63.1800000000 -6.7037311041 -0.2810271750 1 1 1.0
488 4 63.5700000000 -6.3955565636 -0.4926869015 1 1 1.0
489 1 63.9600000000 -6.0216982187 -0.4915357682 1 1 1.0
490 1 64.3500000000 -5.7148329364 -0.2779822956 1 1 1.0
491 3 64.7400000000 -5.5838627241 0.0721865075 1 1 1.0
492 3 65.1300000000 -5.6752669976 0.4347008465 1 1 1.0
493 2 65.5200000000 -5.9566077151 0.6809096763 1 1 1.0
494 2 65.9100000000 -6.3280411643 0.7234370787 1 1 1.0
495 4 66.3000000000 -6.6577510383 0.5471906996 1 1 1.0
496 1 66.6900000000 -6.8287281177 0.2147178052 1 1 1.0
497 3 66.6900000000 -8.3887281177 0.2147178052 1 1 1.0
498 2 66.3000000000 -8.4371611017 -0.1559918295 1 1 1.0
499 2 65.9100000000 -8.6878159902 -0.4333787687 1 1 1.0
500 2 65.5200000000 -9.0517390238 -0.5190024383 1 1 1.0
501 3 65.1300000000 -9.3997792322 -0.3824762485 1 1 1.0
502 4 64.7400000000 -9.6084222281 -0.0722513503 1 1 1.0
503 4 64.3500000000 -9.6036236589 0.3015779702 1 1 1.0
504 1 63.9600000000 -9.3870864669 0.6063451464 1 1 1.0
505 1 63.5700000000 -9.0356565394 0.7338927579 1 1 1.0
506 4 63.1800000000 -8.6740512255 0.6389560201 1 1 1.0
507 2 62.7900000000 -8.4305989707 0.3552265947 1 1 1.0
508 4 62.4000000000 -8.3916974249 -0.0166040884 1 1 1.0
509 3 62.0100000000 -8.5711521787 -0.3445787498 1 1 1.0
510 1 61.6200000000 -8.9052773605 -0.5123039717 1 1 1.0
511 3 61.2300000000 -9.2754968227 -0.4602565221 1 1 1.0
512 2 60.8400000000 -9.5504250845 -0.2069072808 1 1 1.0
513 3 60.4500000000 -9.6324941206 0.1578338061 1 1 1.0
514 3 60.0600000000 -9.4925788286 0.5045254534 1 1 1.0
515 3 59.6700000000 -9.1803331025 0.7101318581 1 1 1.0
516 2 59.2800000000 -8.8065683905 0.7016863098 1 1 1.0
517 1 58.8900000000 -8.5039283309 0.4821860103 1 1 1.0
518 2 58.5000000000 -8.3798154612 0.1295284104 1 1 1.0
519 3 58.1100000000 -8.4782756265 -0.2311334576 1 1 1.0
520 3 57.7200000000 -8.7643667519 -0.4718059636 1 1 1.0
521 2 57.3300000000 -9.1365592749 -0.5070779498 1 1 1.0
522 4 56.9400000000 -9.4627675043 -0.3244319033 1 1 1.0
523 3 56.5500000000 -9.6272249031 0.0113137610 1 1 1.0
524 1 56.1600000000 -9.5715679422 0.3810078101 1 1 1.0
525 4 55.7700000000 -9.3155484642 0.6534512244 1 1 1.0
526 1 55.3800000000 -8.9500240431 0.7319578150 1 1 1.0
527 3 54.9900000000 -8.6047139581 0.5886667392 1 1 1.0
528 2 54.6000000000 -8.4021637158 0.2744299073 1 1 1.0
529 1 54.2100000000 -8.4142554393 -0.0992346180 1 1 1.0
530 2 53.8200000000 -8.6366979524 -0.3997187532 1 1 1.0
531 1 53.4300000000 -8.9905496557 -0.5203850669 1 1 1.0
532 2 53.0400000000 -9.3502337470 -0.4184108464 1 1 1.0
533 2 52.6500000000 -9.5881035949 -0.1299852535 1 1 1.0
534 4 52.2600000000 -9.6197426640 0.2425336809 1 1 1.0
535 4 51.8700000000 -9.4339227107 0.5669444269 1 1 1.0
536 2 51.4800000000 -9.0965885229 0.7281183483 1 1 1.0
537 1 51.0900000000 -8.7274550777 0.6688571739 1 1 1.0
538 3 50.7000000000 -8.4575224442 0.4101918292 1 1 1.0
539 4 50.3100000000 -8.3825857722 0.0439188677 1 1 1.0
540 3 49.9200000000 -8.5292389922 -0.2999767854 1 1 1.0