# LAMMPS data file
1693 atoms
1693 ellipsoids
1692 bonds

4 atom types
1 bond types

0.0 50.0 xlo xhi
0.0 50.0 ylo yhi
0.0 50.0 zlo zhi

Masses

1 3.1575
2 3.1575
3 3.1575
4 3.1575

Atoms

1 3 31.0000000000 0.0000000000 0.0000000000 1 1 1.0
2 4 31.3900000000 -0.0517729067 0.3738487548 1 1 1.0
3 3 31.7800000000 -0.3094446321 0.6496178742 1 1 1.0
4 1 32.1700000000 -0.6789249743 0.7266087964 1 1 1.0
5 1 32.5600000000 -1.0252962194 0.5767078764 1 1 1.0
6 1 32.9500000000 -1.2220790638 0.2546522329 1 1 1.0
7 3 33.3400000000 -1.1974172043 -0.1219578015 1 1 1.0
8 1 33.7300000000 -0.9603160501 -0.4156010681 1 1 1.0
9 3 34.1200000000 -0.5973543499 -0.5190521651 1 1 1.0
10 2 34.5100000000 -0.2410695004 -0.3945353738 1 1 1.0
11 3 34.9000000000 -0.0215608108 -0.0875186632 1 1 1.0
12 1 35.2900000000 -0.0189830477 0.2898891804 1 1 1.0
13 3 35.6800000000 -0.2342774949 0.5998756742 1 1 1.0
14 4 36.0700000000 -0.5888282390 0.7292475999 1 1 1.0
15 2 36.4600000000 -0.9531691887 0.6307641102 1 1 1.0
16 2 36.8500000000 -1.1942593067 0.3403869755 1 1 1.0
17 2 37.2400000000 -1.2240632532 -0.0358510477 1 1 1.0
18 1 37.6300000000 -1.0316979585 -0.3605646426 1 1 1.0
19 2 38.0200000000 -0.6874066339 -0.5151829116 1 1 1.0
20 1 38.4100000000 -0.3169090892 -0.4432461708 1 1 1.0
21 2 38.8000000000 -0.0554944749 -0.1710225040 1 1 1.0
22 4 39.1900000000 0.0013802710 0.2020841679 1 1 1.0
23 2 39.5800000000 -0.1670529676 0.5398319576 1 1 1.0
24 4 39.9700000000 -0.4992898971 0.7188904619 1 1 1.0
25 3 40.3600000000 -0.8740124343 0.6738755149 1 1 1.0
26 1 40.7500000000 -1.1543886501 0.4212245641 1 1 1.0
27 4 41.1400000000 -1.2380376768 0.0531944489 1 1 1.0
28 3 41.5300000000 -1.0944146272 -0.2958266750 1 1 1.0
29 1 41.9200000000 -0.7759642222 -0.4983918865 1 1 1.0
30 2 42.3100000000 -0.3989703224 -0.4805334204 1 1 1.0
31 1 42.7000000000 -0.1010942569 -0.2487723906 1 1 1.0
32 3 43.0900000000 0.0088929434 0.1122624292 1 1 1.0
33 3 43.4800000000 -0.1091711332 0.4707372528 1 1 1.0
34 2 43.8700000000 -0.4121747606 0.6957530903 1 1 1.0
35 4 44.2600000000 -0.7894745515 0.7051442108 1 1 1.0
36 3 44.6500000000 -1.1032974788 0.4954813967 1 1 1.0
37 4 45.0400000000 -1.2390494303 0.1433241407 1 1 1.0
38 4 45.4300000000 -1.1471598582 -0.2227354609 1 1 1.0
39 1 45.8200000000 -0.8611827290 -0.4690287959 1 1 1.0
40 3 46.2100000000 -0.4855441135 -0.5056205421 1 1 1.0
41 4 46.6000000000 -0.1574104517 -0.3191490286 1 1 1.0
42 3 46.9900000000 0.0033985031 0.0222946789 1 1 1.0
43 4 47.3800000000 -0.0618374948 0.3940305931 1 1 1.0
44 1 47.7700000000 -0.3292971735 0.6603173662 1 1 1.0
45 3 48.1600000000 -0.7013162078 0.7239189657 1 1 1.0
46 4 48.5500000000 -1.0420498670 0.5616109289 1 1 1.0
47 3 48.9400000000 -1.2270774418 0.2326608995 1 1 1.0
48 1 49.3300000000 -1.1888351284 -0.1428132685 1 1 1.0
49 2 49.7200000000 -0.9412873110 -0.4277051839 1 1 1.0
50 1 50.1100000000 -0.5748273929 -0.5179850473 1 1 1.0
51 3 50.5000000000 -0.2232701638 -0.3806866862 1 1 1.0
52 4 50.8900000000 -0.0149886171 -0.0659453278 1 1 1.0
53 4 51.2800000000 -0.0260378684 0.3113095454 1 1 1.0
54 2 51.6700000000 -0.2523832247 0.6133213085 1 1 1.0
55 4 52.0600000000 -0.6113734743 0.7298087585 1 1 1.0
56 2 52.4500000000 -0.9719214167 0.6182358831 1 1 1.0
57 2 52.8400000000 -1.2023710517 0.3193441116 1 1 1.0
58 3 53.2300000000 -1.2185724683 -0.0577246347 1 1 1.0
59 1 53.6200000000 -1.0146096330 -0.3752816960 1 1 1.0
60 2 54.0100000000 -0.6649606608 -0.5173694210 1 1 1.0
61 1 54.4000000000 -0.2973017351 -0.4321037206 1 1 1.0
62 2 54.7900000000 -0.0458854695 -0.1506198192 1 1 1.0
63 3 55.1800000000 -0.0025178518 0.2242969383 1 1 1.0
64 4 55.5700000000 -0.1830347983 0.5557437023 1 1 1.0
65 4 55.9600000000 -0.5215195851 0.7226909226 1 1 1.0
66 4 56.3500000000 -0.8943726908 0.6641769332 1 1 1.0
67 1 56.7400000000 -1.1654448189 0.4015684286 1 1 1.0
68 3 57.1300000000 -1.2357525392 0.0307583023 1 1 1.0
69 2 57.5200000000 -1.0796226133 -0.3128501545 1 1 1.0
70 4 57.9100000000 -0.7540667146 -0.5037864846 1 1 1.0
71 2 58.3000000000 -0.3779633126 -0.4723292710 1 1 1.0
72 2 58.6900000000 -0.0886485663 -0.2299652825 1 1 1.0
73 4 59.0800000000 0.0082327046 0.1348049804 1 1 1.0
74 3 59.4700000000 -0.1226962117 0.4887837146 1 1 1.0
75 4 59.8600000000 -0.4336259244 0.7027137010 1 1 1.0
76 2 60.2500000000 -0.8110187939 0.6984772664 1 1 1.0
77 1 60.6400000000 -1.1170678051 0.4776213675 1 1 1.0
78 2 61.0300000000 -1.2400175325 0.1207927113 1 1 1.0
79 4 61.4200000000 -1.1349722286 -0.2417108190 1 1 1.0
80 3 61.8100000000 -0.8402897454 -0.4775191297 1 1 1.0
81 4 62.2000000000 -0.4635749602 -0.5005255611 1 1 1.0
82 4 62.5900000000 -0.1423872819 -0.3023291922 1 1 1.0
83 4 62.9800000000 0.0059898991 0.0446975179 1 1 1.0
84 2 63.3700000000 -0.0726241348 0.4138359188 1 1 1.0
85 2 63.7600000000 -0.3495230505 0.6702931585 1 1 1.0
86 4 64.1500000000 -0.7235957351 0.7204225110 1 1 1.0
87 3 64.5400000000 -1.0582475566 0.5459189762 1 1 1.0
88 2 64.9300000000 -1.2312786212 0.2105034488 1 1 1.0
89 3 64.9300000000 -2.7912786212 0.2105034488 1 1 1.0
90 3 64.5400000000 -2.8369698618 -0.1575866259 1 1 1.0
91 4 64.1500000000 -3.0818186508 -0.4362029625 1 1 1.0
92 3 63.7600000000 -3.4409875444 -0.5288080294 1 1 1.0
93 3 63.3700000000 -3.7900284254 -0.4033151774 1 1 1.0
94 4 62.9800000000 -4.0080024229 -0.1032063155 1 1 1.0
95 1 62.5900000000 -4.0193839162 0.2675340978 1 1 1.0
96 3 62.2000000000 -3.8202293417 0.5804485398 1 1 1.0
97 2 61.8100000000 -3.4795435945 0.7271155578 1 1 1.0
98 1 61.4200000000 -3.1153705825 0.6567166244 1 1 1.0
99 3 61.0300000000 -2.8538922955 0.3936442049 1 1 1.0
100 3 60.6400000000 -2.7857081175 0.0290500327 1 1 1.0
101 4 60.2500000000 -2.9344431250 -0.3107379748 1 1 1.0
102 1 59.8600000000 -3.2485622547 -0.5079869669 1 1 1.0
103 3 59.4700000000 -3.6192266429 -0.4943523119 1 1 1.0
104 2 59.0800000000 -3.9180051085 -0.2745582696 1 1 1.0
105 2 58.6900000000 -4.0413741611 0.0752389136 1 1 1.0
106 1 58.3000000000 -3.9465877650 0.4338383163 1 1 1.0
107 1 57.9100000000 -3.6664883762 0.6769891437 1 1 1.0
108 4 57.5200000000 -3.2981273879 0.7204422774 1 1 1.0
109 3 57.1300000000 -2.9691378782 0.5491416788 1 1 1.0
110 2 56.7400000000 -2.7935111360 0.2224411433 1 1 1.0
111 1 56.3500000000 -2.8320999182 -0.1464611451 1 1 1.0
112 3 55.9600000000 -3.0715336312 -0.4297445537 1 1 1.0
113 1 55.5700000000 -3.4288510963 -0.5292544609 1 1 1.0
114 4 55.1800000000 -3.7802456962 -0.4105117656 1 1 1.0
115 1 54.7900000000 -4.0039630219 -0.1146595209 1 1 1.0
116 1 54.4000000000 -4.0224874520 0.2557926866 1 1 1.0
117 1 54.0100000000 -3.8294004728 0.5724871939 1 1 1.0
118 1 53.6200000000 -3.4916046237 0.7256927971 1 1 1.0
119 4 53.2300000000 -3.1261424943 0.6623254201 1 1 1.0
120 1 52.8400000000 -2.8596427396 0.4043411701 1 1 1.0
121 3 52.4500000000 -2.7844446275 0.0411287854 1 1 1.0
122 1 52.0600000000 -2.9266034864 -0.3014625913 1 1 1.0
123 1 51.6700000000 -3.2368628171 -0.5047287720 1 1 1.0
124 4 51.2800000000 -3.6077211343 -0.4982402348 1 1 1.0
125 3 50.8900000000 -3.9106800625 -0.2842451873 1 1 1.0
126 1 50.5000000000 -4.0407676264 0.0631094128 1 1 1.0
127 4 50.1100000000 -3.9529098995 0.4234689726 1 1 1.0
128 1 49.7200000000 -3.6775486288 0.6719728220 1 1 1.0
129 3 49.3300000000 -3.3100935014 0.7225170785 1 1 1.0
130 3 48.9400000000 -2.9778637244 0.5575887068 1 1 1.0
131 4 48.5500000000 -2.7959733040 0.2343335948 1 1 1.0
132 3 48.1600000000 -2.8274452935 -0.1352438753 1 1 1.0
133 2 47.7700000000 -3.0613749907 -0.4230891276 1 1 1.0
134 2 47.3800000000 -3.4167082985 -0.5294669113 1 1 1.0
135 4 46.9900000000 -3.7703260885 -0.4175184808 1 1 1.0
136 1 46.6000000000 -3.9997036405 -0.1260327502 1 1 1.0
137 4 46.2100000000 -4.0253641263 0.2439936435 1 1 1.0
138 1 45.8200000000 -3.8384164665 0.5643505772 1 1 1.0
139 3 45.4300000000 -3.5036359929 0.7240378560 1 1 1.0
140 1 45.0400000000 -3.1370205003 0.6677255737 1 1 1.0
141 2 44.6500000000 -2.8655982716 0.4149253239 1 1 1.0
142 2 44.2600000000 -2.7834141585 0.0532296451 1 1 1.0
143 3 43.8700000000 -2.9189440626 -0.2920378419 1 1 1.0
144 1 43.4800000000 -3.2252283457 -0.5012457062 1 1 1.0
145 3 43.0900000000 -3.5961428330 -0.5019056970 1 1 1.0
146 1 42.7000000000 -3.9031696869 -0.2937891347 1 1 1.0
147 1 42.3100000000 -4.0399274401 0.0509938542 1 1 1.0
148 1 41.9200000000 -3.9590310177 0.4129797122 1 1 1.0
149 2 41.5300000000 -3.6885101508 0.6667442744 1 1 1.0
150 1 41.1400000000 -3.3220973789 0.7243608788 1 1 1.0
151 1 40.7500000000 -2.9867507443 0.5658659981 1 1 1.0
152 4 40.3600000000 -2.7986642105 0.2461763856 1 1 1.0
153 1 39.9700000000 -2.8230077168 -0.1239389832 1 1 1.0
154 4 39.5800000000 -3.0513465029 -0.4162391564 1 1 1.0
155 3 39.1900000000 -3.4045636616 -0.5294453016 1 1 1.0
156 2 38.8000000000 -3.7602732871 -0.4243327201 1 1 1.0
157 1 38.4100000000 -3.9952258611 -0.1373217787 1 1 1.0
158 4 38.0200000000 -4.0280128707 0.2321413514 1 1 1.0
159 4 37.6300000000 -3.8472739736 0.5560417120 1 1 1.0
160 3 37.2400000000 -3.5156332328 0.7221513491 1 1 1.0
161 1 36.8500000000 -3.1480005598 0.6729150792 1 1 1.0
162 3 36.4600000000 -2.8717566794 0.4253927346 1 1 1.0
163 3 36.0700000000 -2.7826170932 0.0653481170 1 1 1.0
164 2 35.6800000000 -2.9114676988 -0.2824672276 1 1 1.0
165 4 35.2900000000 -3.2136631621 -0.4975390633 1 1 1.0
166 2 34.9000000000 -3.5844960400 -0.5053473370 1 1 1.0
167 3 34.5100000000 -3.8954767717 -0.3031865667 1 1 1.0
168 1 34.1200000000 -4.0388539142 0.0388967382 1 1 1.0
169 4 33.7300000000 -3.9649488461 0.4023744314 1 1 1.0
170 4 33.3400000000 -3.6993688703 0.6613054434 1 1 1.0
171 2 32.9500000000 -3.3341345613 0.7259729933 1 1 1.0
172 1 32.5600000000 -2.9957956367 0.5739704780 1 1 1.0
173 4 32.1700000000 -2.8015828560 0.2579651167 1 1 1.0
174 3 31.7800000000 -2.8187888365 -0.1125506680 1 1 1.0
175 4 31.3900000000 -3.0414518929 -0.4091971846 1 1 1.0
176 3 31.0000000000 -3.3924216967 -0.5291896399 1 1 1.0
177 2 30.6100000000 -3.7500910262 -0.4309519524 1 1 1.0
178 2 30.2200000000 -3.9905313469 -0.1485224130 1 1 1.0
179 2 29.8300000000 -4.0304327013 0.2202402131 1 1 1.0
180 2 29.4400000000 -3.8559697040 0.5475636847 1 1 1.0
181 4 29.0500000000 -3.5275918869 0.7200339772 1 1 1.0
182 1 28.6600000000 -3.1590785940 0.6778920090 1 1 1.0
183 1 28.2700000000 -2.8781156753 0.4357395140 1 1 1.0
184 3 27.8800000000 -2.7820537278 0.0774796994 1 1 1.0
185 1 27.4900000000 -2.9041771721 -0.2727543036 1 1 1.0
186 4 27.1000000000 -3.2021715623 -0.4936102203 1 1 1.0
187 2 26.7100000000 -3.5727850816 -0.5085638764 1 1 1.0
188 1 26.3200000000 -3.8876041744 -0.3124339926 1 1 1.0
189 4 25.9300000000 -4.0375474474 0.0268225584 1 1 1.0
190 4 25.5400000000 -3.9706611864 0.3916570697 1 1 1.0
191 4 25.1500000000 -3.7101207538 0.6556583491 1 1 1.0
192 1 24.7600000000 -3.3462005773 0.7273528232 1 1 1.0
193 2 24.3700000000 -3.0049950419 0.5818991360 1 1 1.0
194 2 23.9800000000 -2.8047281564 0.2696954091 1 1 1.0
195 3 23.5900000000 -2.8147902197 -0.1010831601 1 1 1.0
196 4 23.2000000000 -3.0316948362 -0.4019658280 1 1 1.0
197 3 22.8100000000 -3.3802869142 -0.5287000210 1 1 1.0
198 1 22.4200000000 -3.7397830881 -0.4373737189 1 1 1.0
199 1 22.0300000000 -3.9856218417 -0.1596304926 1 1 1.0
200 2 21.6400000000 -4.0326227192 0.2082946493 1 1 1.0
201 1 21.2500000000 -3.8645004276 0.5389196447 1 1 1.0
202 1 20.8600000000 -3.5395075132 0.7176865268 1 1 1.0
203 3 20.4700000000 -3.1702504881 0.6826545143 1 1 1.0
204 3 20.0800000000 -2.8846728973 0.4459618187 1 1 1.0
205 3 19.6900000000 -2.7817242715 0.0896198861 1 1 1.0
206 2 19.3000000000 -2.8970751906 -0.2629026777 1 1 1.0
207 2 18.9100000000 -3.1907578150 -0.4894606364 1 1 1.0
208 3 18.5200000000 -3.5610143078 -0.5115541203 1 1 1.0
209 1 18.1300000000 -3.8795548193 -0.3215279772 1 1 1.0
210 1 17.7400000000 -4.0360085250 0.0147757999 1 1 1.0
211 3 17.3500000000 -3.9761659166 0.3808316081 1 1 1.0
212 1 16.9600000000 -3.7207618075 0.6498050892 1 1 1.0
213 2 16.5700000000 -3.3582909449 0.7284998559 1 1 1.0
214 4 16.1800000000 -3.0143455425 0.5896490270 1 1 1.0
215 1 15.7900000000 -2.8080989433 0.2813629054 1 1 1.0
216 4 15.4000000000 -2.8110133518 -0.0895407192 1 1 1.0
217 1 15.0100000000 -3.0220789572 -0.3945477728 1 1 1.0
218 3 14.6200000000 -3.3681638216 -0.5279766270 1 1 1.0
219 1 14.2300000000 -3.7293533018 -0.4435956342 1 1 1.0
220 3 13.8400000000 -3.9804991691 -0.1706418912 1 1 1.0
221 2 13.4500000000 -4.0345821108 0.1963090973 1 1 1.0
222 3 13.0600000000 -3.8728629755 0.5301128027 1 1 1.0
223 4 12.6700000000 -3.5513756855 0.7151098699 1 1 1.0
224 2 12.2800000000 -3.1815120920 0.6872008261 1 1 1.0
225 2 11.8900000000 -2.8914259095 0.4560558516 1 1 1.0
226 1 11.5000000000 -2.7816288468 0.1017641673 1 1 1.0
227 1 11.1100000000 -2.8901643925 -0.2529160095 1 1 1.0
228 1 10.7200000000 -3.1794261599 -0.4850918532 1 1 1.0
229 3 10.3300000000 -3.5491880911 -0.5143169579 1 1 1.0
230 3 9.9400000000 -3.8713316965 -0.3304651426 1 1 1.0
231 3 9.5500000000 -4.0342377188 0.0027609375 1 1 1.0
232 3 9.1600000000 -3.9814609921 0.3699020679 1 1 1.0
233 1 8.7700000000 -3.7312880785 0.6437478381 1 1 1.0
234 4 8.3800000000 -3.3704011730 0.7294136655 1 1 1.0
235 4 7.9900000000 -3.0238436654 0.5972172723 1 1 1.0
236 1 7.6000000000 -2.8116939645 0.2929632715 1 1 1.0
237 1 7.2100000000 -2.8074596356 -0.0779276329 1 1 1.0
238 1 6.8200000000 -3.0126078277 -0.3869457744 1 1 1.0
239 4 6.4300000000 -3.3560569222 -0.5270197264 1 1 1.0
240 2 6.0400000000 -3.7188055414 -0.4496153870 1 1 1.0
241 3 5.6500000000 -3.9751652322 -0.1815525186 1 1 1.0
242 3 5.2600000000 -4.0363101485 0.1842880092 1 1 1.0
243 2 4.8700000000 -3.8810542414 0.5211464302 1 1 1.0
244 1 4.4800000000 -3.5631919951 0.7123049636 1 1 1.0
245 2 4.0900000000 -3.1928592225 0.6915292556 1 1 1.0
246 4 3.7000000000 -2.8983722035 0.4660178631 1 1 1.0
247 1 3.3100000000 -2.7817674889 0.1139080321 1 1 1.0
248 4 2.9200000000 -2.8834473448 -0.2427980085 1 1 1.0
249 4 2.5300000000 -3.1681808063 -0.4805054934 1 1 1.0
250 2 2.1400000000 -3.5373108245 -0.5168513631 1 1 1.0
251 3 1.7500000000 -3.8629378605 -0.3392421689 1 1 1.0
252 3 1.3600000000 -4.0322356864 -0.0092175657 1 1 1.0
253 4 1.3600000000 -5.5922356864 -0.0092175657 1 1 1.0
254 4 1.7500000000 -5.6406299896 0.3614553818 1 1 1.0
255 2 2.1400000000 -5.8912032526 0.6388602889 1 1 1.0
256 1 2.5300000000 -6.2550604194 0.7245831254 1 1 1.0
257 3 2.9200000000 -6.6031170750 0.5882122813 1 1 1.0
258 3 3.3100000000 -6.8118942996 0.2781275944 1 1 1.0
259 1 3.7000000000 -6.8073248811 -0.0956632067 1 1 1.0
260 4 4.0900000000 -6.5910298972 -0.4005515839 1 1 1.0
261 4 4.4800000000 -6.2397436108 -0.5283732862 1 1 1.0
262 2 4.8700000000 -5.8780907071 -0.4337814269 1 1 1.0
263 2 5.2600000000 -5.6343736022 -0.1503340502 1 1 1.0
264 1 5.6500000000 -5.5950550150 0.2214111465 1 1 1.0
265 1 6.0400000000 -5.7740838720 0.5495713375 1 1 1.0
266 3 6.4300000000 -6.1079466920 0.7177262067 1 1 1.0
267 3 6.8200000000 -6.4782000558 0.6662200019 1 1 1.0
268 4 7.2100000000 -6.7534903905 0.4133254107 1 1 1.0
269 3 7.6000000000 -6.8361538456 0.0487610189 1 1 1.0
270 4 7.9900000000 -6.6968641780 -0.2981378584 1 1 1.0
271 1 8.3800000000 -6.3850367267 -0.5043030428 1 1 1.0
272 2 8.7700000000 -6.0112974954 -0.4965939870 1 1 1.0
273 2 9.1600000000 -5.7082367268 -0.2777456077 1 1 1.0
274 4 9.5500000000 -5.5833702973 0.0746019727 1 1 1.0
275 4 9.9400000000 -5.6809966609 0.4354475570 1 1 1.0
276 4 10.3300000000 -5.9664812325 0.6767751393 1 1 1.0
277 4 10.7200000000 -6.3385435856 0.7129697237 1 1 1.0
278 4 11.1100000000 -6.6651883781 0.5311906760 1 1 1.0
279 2 11.5000000000 -6.8305329067 0.1959271536 1 1 1.0
280 4 11.8900000000 -6.7759184346 -0.1738805018 1 1 1.0
281 4 12.2800000000 -6.5207203593 -0.4470368397 1 1 1.0
282 3 12.6700000000 -6.1554744659 -0.5266350808 1 1 1.0
283 4 13.0600000000 -5.8097578438 -0.3844364178 1 1 1.0
284 2 13.4500000000 -5.6062192465 -0.0708882046 1 1 1.0
285 2 13.8400000000 -5.6170673955 0.3027730862 1 1 1.0
286 4 14.2300000000 -5.8384537286 0.6039848625 1 1 1.0
287 3 14.6200000000 -6.1918377414 0.7258872088 1 1 1.0
288 4 15.0100000000 -6.5518505454 0.6252332293 1 1 1.0
289 2 15.4000000000 -6.7907715771 0.3377316064 1 1 1.0
290 1 15.7900000000 -6.8238396049 -0.0346216508 1 1 1.0
291 1 16.1800000000 -6.6393231927 -0.3597279969 1 1 1.0
292 4 16.5700000000 -6.3026826239 -0.5222505183 1 1 1.0
293 2 16.9600000000 -5.9333467702 -0.4645316325 1 1 1.0
294 1 17.3500000000 -5.6623437028 -0.2070480796 1 1 1.0
295 4 17.7400000000 -5.5858162921 0.1588535438 1 1 1.0
296 3 18.1300000000 -5.7309139171 0.5033635173 1 1 1.0
297 3 18.5200000000 -6.0461607686 0.7042611660 1 1 1.0
298 1 18.9100000000 -6.4197177536 0.6902746890 1 1 1.0
299 3 19.3000000000 -6.7190592842 0.4663660232 1 1 1.0
300 4 19.6900000000 -6.8379889460 0.1119705123 1 1 1.0
301 3 20.0800000000 -6.7343144526 -0.2471841090 1 1 1.0
302 2 20.4700000000 -6.4448160643 -0.4836817321 1 1 1.0
303 1 20.8600000000 -6.0721981761 -0.5136208700 1 1 1.0
304 2 21.2500000000 -5.7486532156 -0.3263801127 1 1 1.0
305 2 21.6400000000 -5.5889641689 0.0116137496 1 1 1.0
306 4 22.0300000000 -5.6497833958 0.3804517414 1 1 1.0
307 4 22.4200000000 -5.9095342585 0.6492824166 1 1 1.0
308 2 22.8100000000 -6.2760657942 0.7227335970 1 1 1.0
309 3 23.2000000000 -6.6193448106 0.5747472481 1 1 1.0
310 2 23.5900000000 -6.8175873354 0.2578240019 1 1 1.0
311 1 23.9800000000 -6.8004635175 -0.1156023194 1 1 1.0
312 2 24.3700000000 -6.5740483177 -0.4130524830 1 1 1.0
313 1 24.7600000000 -6.2186663147 -0.5290010688 1 1 1.0
314 2 25.1500000000 -5.8603952177 -0.4223133766 1 1 1.0
315 1 25.5400000000 -5.6263376903 -0.1308386497 1 1 1.0
316 3 25.9300000000 -5.5995295548 0.2420175779 1 1 1.0
317 4 26.3200000000 -5.7894814456 0.5639783236 1 1 1.0
318 4 26.7100000000 -6.1288047527 0.7208226282 1 1 1.0
319 1 27.1000000000 -6.4971188578 0.6569073515 1 1 1.0
320 3 27.4900000000 -6.7637581722 0.3949075069 1 1 1.0
321 3 27.8800000000 -6.8341279398 0.0277719211 1 1 1.0
322 4 28.2700000000 -6.6832633087 -0.3142519168 1 1 1.0
323 2 28.6600000000 -6.3646860298 -0.5098253300 1 1 1.0
324 3 29.0500000000 -5.9914167208 -0.4895653793 1 1 1.0
325 1 29.4400000000 -5.6958789120 -0.2606596211 1 1 1.0
326 4 29.8300000000 -5.5829195836 0.0956837985 1 1 1.0
327 4 30.2200000000 -5.6926129466 0.4530460918 1 1 1.0
328 3 30.6100000000 -5.9860434460 0.6846470086 1 1 1.0
329 2 31.0000000000 -6.3591117045 0.7083222501 1 1 1.0
330 1 31.3900000000 -6.6794655181 0.5156726286 1 1 1.0
331 3 31.7800000000 -6.8334540137 0.1750438192 1 1 1.0
332 1 32.1700000000 -6.7664471971 -0.1927204112 1 1 1.0
333 3 32.5600000000 -6.5022168571 -0.4571495510 1 1 1.0
334 2 32.9500000000 -6.1345031259 -0.5244329406 1 1 1.0
335 2 33.3400000000 -5.7937585996 -0.3707006721 1 1 1.0
336 1 33.7300000000 -5.6008680976 -0.0504918390 1 1 1.0
337 4 34.1200000000 -5.6242627514 0.3225941199 1 1 1.0
338 4 34.5100000000 -5.8556429165 0.6161987211 1 1 1.0
339 4 34.9000000000 -6.2129226095 0.7261608218 1 1 1.0
340 4 35.2900000000 -6.5693508839 0.6134695277 1 1 1.0
341 4 35.6800000000 -6.7984788484 0.3181039602 1 1 1.0
342 1 36.0700000000 -6.8190195256 -0.0551500058 1 1 1.0
343 3 36.4600000000 -6.6236857665 -0.3738742835 1 1 1.0
344 3 36.8500000000 -6.2817754892 -0.5249961047 1 1 1.0
345 1 37.2400000000 -5.9145870828 -0.4549024761 1 1 1.0
346 1 37.6300000000 -5.6523867755 -0.1884602846 1 1 1.0
347 3 38.0200000000 -5.5881945114 0.1798056463 1 1 1.0
348 4 38.4100000000 -5.7447835699 0.5192468184 1 1 1.0
349 3 38.8000000000 -6.0666013636 0.7094407991 1 1 1.0
350 2 39.1900000000 -6.4394776479 0.6829130927 1 1 1.0
351 1 39.5800000000 -6.7311283248 0.4490748467 1 1 1.0
352 4 39.9700000000 -6.8380854389 0.0908840898 1 1 1.0
353 2 40.3600000000 -6.7224041653 -0.2645850164 1 1 1.0
354 3 40.7500000000 -6.4251243704 -0.4912238616 1 1 1.0
355 2 41.1400000000 -6.0517110334 -0.5086285250 1 1 1.0
356 4 41.5300000000 -5.7346387806 -0.3106244110 1 1 1.0
357 1 41.9200000000 -5.5863942967 0.0325432092 1 1 1.0
358 2 42.3100000000 -5.6595697916 0.3991298832 1 1 1.0
359 2 42.7000000000 -5.9282050347 0.6590828573 1 1 1.0
360 3 43.0900000000 -6.2969971807 0.7201794665 1 1 1.0
361 4 43.4800000000 -6.6351110479 0.5607446667 1 1 1.0
362 2 43.8700000000 -6.8225950872 0.2373406198 1 1 1.0
363 4 44.2600000000 -6.7929362001 -0.1352996800 1 1 1.0
364 4 44.6500000000 -6.5566563727 -0.4249758540 1 1 1.0
365 3 45.0400000000 -6.1975798256 -0.5289204348 1 1 1.0
366 2 45.4300000000 -5.8430949691 -0.4102573440 1 1 1.0
367 1 45.8200000000 -5.6189612348 -0.1110842976 1 1 1.0
368 2 46.2100000000 -5.6046938133 0.2624620627 1 1 1.0
369 3 46.6000000000 -5.8053543110 0.5778599182 1 1 1.0
370 3 46.9900000000 -6.1497550606 0.7232166047 1 1 1.0
371 1 47.3800000000 -6.5157141360 0.6469644067 1 1 1.0
372 2 47.7700000000 -6.7734014349 0.3761550668 1 1 1.0
373 2 48.1600000000 -6.8313980782 0.0068627274 1 1 1.0
374 3 48.5500000000 -6.6691287868 -0.3298999779 1 1 1.0
375 4 48.9400000000 -6.3441613057 -0.5146608471 1 1 1.0
376 1 49.3300000000 -5.9717832837 -0.4818728719 1 1 1.0
377 2 49.7200000000 -5.6841020519 -0.2431681349 1 1 1.0
378 2 50.1100000000 -5.5831773387 0.1167688663 1 1 1.0
379 2 50.5000000000 -5.7048138740 0.4702444608 1 1 1.0
380 3 50.8900000000 -6.0058590625 0.6918572697 1 1 1.0
381 4 51.2800000000 -6.3795120889 0.7029864426 1 1 1.0
382 2 51.6700000000 -6.6932132928 0.4996837194 1 1 1.0
383 2 52.0600000000 -6.8356719257 0.1540741413 1 1 1.0
384 4 52.4500000000 -6.7563484050 -0.2112315138 1 1 1.0
385 4 52.8400000000 -6.4833840763 -0.4666349552 1 1 1.0
386 2 53.2300000000 -6.1136176004 -0.5215275405 1 1 1.0
387 1 53.6200000000 -5.7782298189 -0.3564352071 1 1 1.0
388 2 54.0100000000 -5.5962051563 -0.0299272213 1 1 1.0
389 1 54.4000000000 -5.6321199060 0.3421622483 1 1 1.0
390 2 54.7900000000 -5.8732327099 0.6278282392 1 1 1.0
391 4 55.1800000000 -6.2340047683 0.7257259637 1 1 1.0
392 2 55.5700000000 -6.5864461598 0.6011245666 1 1 1.0
393 1 55.9600000000 -6.8055224063 0.2982284774 1 1 1.0
394 1 56.3500000000 -6.8135125455 -0.0755048503 1 1 1.0
395 4 56.7400000000 -6.6075819418 -0.3874872681 1 1 1.0
396 3 57.1300000000 -6.2607879209 -0.5270377956 1 1 1.0
397 4 57.5200000000 -5.8961614619 -0.4446485492 1 1 1.0
398 1 57.9100000000 -5.6430598991 -0.1695484919 1 1 1.0
399 2 58.3000000000 -5.5912752450 0.2006660299 1 1 1.0
400 2 58.6900000000 -5.7591789716 0.5346552231 1 1 1.0
401 1 59.0800000000 -6.0872044240 0.7139308355 1 1 1.0
402 4 59.4700000000 -6.4589790867 0.6748918453 1 1 1.0
403 3 59.8600000000 -6.7426096804 0.4313879873 1 1 1.0
404 4 60.2500000000 -6.8374735085 0.0698063275 1 1 1.0
405 3 60.6400000000 -6.7099160414 -0.2815759930 1 1 1.0
406 3 61.0300000000 -6.4051904238 -0.4981002193 1 1 1.0
407 2 61.4200000000 -6.0314031650 -0.5029507609 1 1 1.0
408 1 61.8100000000 -5.7211615465 -0.2944068069 1 1 1.0
409 4 62.2000000000 -5.5845289710 0.0535471870 1 1 1.0
410 1 62.5900000000 -5.6699781298 0.4174687223 1 1 1.0
411 4 62.9800000000 -5.9471945048 0.6682505478 1 1 1.0
412 4 63.3700000000 -6.3178309506 0.7169236169 1 1 1.0
413 1 63.7600000000 -6.6503979893 0.5462203441 1 1 1.0
414 2 64.1500000000 -6.8269119020 0.2167005705 1 1 1.0
415 2 64.5400000000 -6.7847514260 -0.1547330533 1 1 1.0
416 1 64.9300000000 -6.5388736953 -0.4363082371 1 1 1.0
417 4 65.3200000000 -6.1765079470 -0.5281314753 1 1 1.0
418 4 65.7100000000 -5.8262094908 -0.3976269384 1 1 1.0
419 2 66.1000000000 -5.6122525625 -0.0910932936 1 1 1.0
420 3 66.4900000000 -5.6105419607 0.2827215221 1 1 1.0
421 1 66.8800000000 -5.8216845502 0.5912004509 1 1 1.0
422 1 67.2700000000 -6.1707739659 0.7249054337 1 1 1.0
423 4 67.6600000000 -6.5339648993 0.6364023917 1 1 1.0
424 3 68.0500000000 -6.7824092927 0.3570892592 1 1 1.0
425 1 68.4400000000 -6.8279673423 -0.0139429587 1 1 1.0
426 3 68.8300000000 -6.6544765681 -0.3450643773 1 1 1.0
427 2 69.2200000000 -6.3234857239 -0.5188041356 1 1 1.0
428 4 69.6100000000 -5.9524193472 -0.4735251486 1 1 1.0
429 3 70.0000000000 -5.6729194410 -0.2252908941 1 1 1.0
430 1 70.3900000000 -5.5841432717 0.1378333743 1 1 1.0
431 2 70.7800000000 -5.7175856700 0.4870232495 1 1 1.0
432 3 71.1700000000 -6.0259057133 0.6983977832 1 1 1.0
433 3 71.5600000000 -6.3997217098 0.6969683244 1 1 1.0
434 4 71.9500000000 -6.7064161828 0.4832419975 1 1 1.0
435 4 72.3400000000 -6.8371841388 0.1330417916 1 1 1.0
436 2 72.7300000000 -6.7456334583 -0.2293929136 1 1 1.0
437 2 73.1200000000 -6.4642432763 -0.4754823447 1 1 1.0
438 3 73.5100000000 -6.0928414661 -0.5179221603 1 1 1.0
439 1 73.9000000000 -5.7631890313 -0.3416561261 1 1 1.0
440 2 74.2900000000 -5.5922356864 -0.0092175657 1 1 1.0
441 3 74.2900000000 -4.0322356864 -0.0092175657 1 1 1.0
442 1 73.9000000000 -3.9838413832 0.3614553818 1 1 1.0
443 1 73.5100000000 -3.7332681202 0.6388602889 1 1 1.0
444 2 73.1200000000 -3.3694109534 0.7245831254 1 1 1.0
445 2 72.7300000000 -3.0213542978 0.5882122813 1 1 1.0
446 1 72.3400000000 -2.8125770732 0.2781275944 1 1 1.0
447 3 71.9500000000 -2.8171464917 -0.0956632067 1 1 1.0
448 2 71.5600000000 -3.0334414756 -0.4005515839 1 1 1.0
449 2 71.1700000000 -3.3847277620 -0.5283732862 1 1 1.0
450 1 70.7800000000 -3.7463806657 -0.4337814269 1 1 1.0
451 2 70.3900000000 -3.9900977706 -0.1503340502 1 1 1.0
452 3 70.0000000000 -4.0294163578 0.2214111465 1 1 1.0
453 4 69.6100000000 -3.8503875008 0.5495713375 1 1 1.0
454 1 69.2200000000 -3.5165246808 0.7177262067 1 1 1.0
455 1 68.8300000000 -3.1462713170 0.6662200019 1 1 1.0
456 2 68.4400000000 -2.8709809823 0.4133254107 1 1 1.0
457 3 68.0500000000 -2.7883175272 0.0487610189 1 1 1.0
458 2 67.6600000000 -2.9276071948 -0.2981378584 1 1 1.0
459 4 67.2700000000 -3.2394346461 -0.5043030428 1 1 1.0
460 3 66.8800000000 -3.6131738774 -0.4965939870 1 1 1.0
461 1 66.4900000000 -3.9162346460 -0.2777456077 1 1 1.0
462 2 66.1000000000 -4.0411010755 0.0746019727 1 1 1.0
463 3 65.7100000000 -3.9434747119 0.4354475570 1 1 1.0
464 3 65.3200000000 -3.6579901403 0.6767751393 1 1 1.0
465 4 64.9300000000 -3.2859277872 0.7129697237 1 1 1.0
466 3 64.5400000000 -2.9592829947 0.5311906760 1 1 1.0
467 3 64.1500000000 -2.7939384661 0.1959271536 1 1 1.0
468 2 63.7600000000 -2.8485529382 -0.1738805018 1 1 1.0
469 2 63.3700000000 -3.1037510135 -0.4470368397 1 1 1.0
470 3 62.9800000000 -3.4689969069 -0.5266350808 1 1 1.0
471 1 62.5900000000 -3.8147135290 -0.3844364178 1 1 1.0
472 1 62.2000000000 -4.0182521263 -0.0708882046 1 1 1.0
473 3 61.8100000000 -4.0074039773 0.3027730862 1 1 1.0
474 4 61.4200000000 -3.7860176442 0.6039848625 1 1 1.0
475 1 61.0300000000 -3.4326336314 0.7258872088 1 1 1.0
476 2 60.6400000000 -3.0726208275 0.6252332292 1 1 1.0
477 3 60.2500000000 -2.8336997957 0.3377316064 1 1 1.0
478 2 59.8600000000 -2.8006317679 -0.0346216508 1 1 1.0
479 3 59.4700000000 -2.9851481801 -0.3597279969 1 1 1.0
480 3 59.0800000000 -3.3217887490 -0.5222505183 1 1 1.0
481 2 58.6900000000 -3.6911246026 -0.4645316325 1 1 1.0
482 4 58.3000000000 -3.9621276701 -0.2070480796 1 1 1.0
483 1 57.9100000000 -4.0386550807 0.1588535438 1 1 1.0
484 2 57.5200000000 -3.8935574557 0.5033635173 1 1 1.0
485 4 57.1300000000 -3.5783106042 0.7042611660 1 1 1.0
486 4 56.7400000000 -3.2047536192 0.6902746890 1 1 1.0
487 4 56.3500000000 -2.9054120886 0.4663660232 1 1 1.0
488 4 55.9600000000 -2.7864824268 0.1119705123 1 1 1.0
489 2 55.5700000000 -2.8901569202 -0.2471841090 1 1 1.0
490 2 55.1800000000 -3.1796553085 -0.4836817321 1 1 1.0
491 4 54.7900000000 -3.5522731968 -0.5136208700 1 1 1.0
492 4 54.4000000000 -3.8758181572 -0.3263801127 1 1 1.0
493 3 54.0100000000 -4.0355072039 0.0116137496 1 1 1.0
494 3 53.6200000000 -3.9746879770 0.3804517414 1 1 1.0
495 4 53.2300000000 -3.7149371143 0.6492824166 1 1 1.0
496 1 52.8400000000 -3.3484055786 0.7227335970 1 1 1.0
497 1 52.4500000000 -3.0051265622 0.5747472481 1 1 1.0
498 4 52.0600000000 -2.8068840374 0.2578240019 1 1 1.0
499 2 51.6700000000 -2.8240078553 -0.1156023194 1 1 1.0
500 4 51.2800000000 -3.0504230551 -0.4130524830 1 1 1.0
501 1 50.8900000000 -3.4058050581 -0.5290010688 1 1 1.0
502 4 50.5000000000 -3.7640761551 -0.4223133766 1 1 1.0
503 1 50.1100000000 -3.9981336825 -0.1308386497 1 1 1.0
504 2 49.7200000000 -4.0249418180 0.2420175779 1 1 1.0
505 3 49.3300000000 -3.8349899272 0.5639783236 1 1 1.0
506 4 48.9400000000 -3.4956666201 0.7208226282 1 1 1.0
507 2 48.5500000000 -3.1273525151 0.6569073515 1 1 1.0
508 2 48.1600000000 -2.8607132006 0.3949075069 1 1 1.0
509 1 47.7700000000 -2.7903434330 0.0277719211 1 1 1.0
510 2 47.3800000000 -2.9412080641 -0.3142519168 1 1 1.0
511 2 46.9900000000 -3.2597853431 -0.5098253300 1 1 1.0
512 2 46.6000000000 -3.6330546520 -0.4895653793 1 1 1.0
513 3 46.2100000000 -3.9285924608 -0.2606596211 1 1 1.0
514 3 45.8200000000 -4.0415517892 0.0956837985 1 1 1.0
515 2 45.4300000000 -3.9318584262 0.4530460918 1 1 1.0
516 2 45.0400000000 -3.6384279268 0.6846470086 1 1 1.0
517 3 44.6500000000 -3.2653596683 0.7083222501 1 1 1.0
518 4 44.2600000000 -2.9450058547 0.5156726286 1 1 1.0
519 1 43.8700000000 -2.7910173591 0.1750438192 1 1 1.0
520 3 43.4800000000 -2.8580241757 -0.1927204112 1 1 1.0
521 3 43.0900000000 -3.1222545157 -0.4571495510 1 1 1.0
522 3 42.7000000000 -3.4899682469 -0.5244329406 1 1 1.0
523 4 42.3100000000 -3.8307127732 -0.3707006721 1 1 1.0
524 1 41.9200000000 -4.0236032752 -0.0504918390 1 1 1.0
525 3 41.5300000000 -4.0002086214 0.3225941199 1 1 1.0
526 1 41.1400000000 -3.7688284563 0.6161987211 1 1 1.0
527 3 40.7500000000 -3.4115487633 0.7261608218 1 1 1.0
528 3 40.3600000000 -3.0551204889 0.6134695277 1 1 1.0
529 4 39.9700000000 -2.8259925244 0.3181039602 1 1 1.0
530 3 39.5800000000 -2.8054518473 -0.0551500058 1 1 1.0
531 1 39.1900000000 -3.0007856063 -0.3738742835 1 1 1.0
532 1 38.8000000000 -3.3426958836 -0.5249961047 1 1 1.0
533 2 38.4100000000 -3.7098842900 -0.4549024761 1 1 1.0
534 3 38.0200000000 -3.9720845973 -0.1884602846 1 1 1.0
535 2 37.6300000000 -4.0362768614 0.1798056463 1 1 1.0
536 4 37.2400000000 -3.8796878029 0.5192468184 1 1 1.0
537 3 36.8500000000 -3.5578700092 0.7094407991 1 1 1.0
538 1 36.4600000000 -3.1849937249 0.6829130927 1 1 1.0
539 1 36.0700000000 -2.8933430480 0.4490748467 1 1 1.0
540 1 35.6800000000 -2.7863859339 0.0908840898 1 1 1.0