# LAMMPS data file
4927 atoms
4927 ellipsoids
4926 bonds

4 atom types
1 bond types

0.0 50.0 xlo xhi
0.0 50.0 ylo yhi
0.0 50.0 zlo zhi

Masses

1 3.1575
2 3.1575
3 3.1575
4 3.1575

Atoms

1 4 0.0000000000 0.0000000000 0.0000000000 1 1 1.0
2 3 0.3900000000 -0.0474823469 0.3698057656 1 1 1.0
3 1 0.7800000000 -0.2961287766 0.6476291457 1 1 1.0
4 1 1.1700000000 -0.6584230462 0.7356844676 1 1 1.0
5 3 1.5600000000 -1.0068482101 0.6029788433 1 1 1.0
6 3 1.9500000000 -1.2187688405 0.2962207563 1 1 1.0
7 2 2.3400000000 -1.2195950977 -0.0766199534 1 1 1.0
8 1 2.7300000000 -1.0090361633 -0.3843143029 1 1 1.0
9 4 3.1200000000 -0.6612026002 -0.5185629152 1 1 1.0
10 2 3.5100000000 -0.2985216100 -0.4321142204 1 1 1.0
11 2 3.9000000000 -0.0486462526 -0.1553956210 1 1 1.0
12 4 4.2900000000 0.0004746827 0.2141960608 1 1 1.0
13 4 4.6800000000 -0.1684479312 0.5465754044 1 1 1.0
14 1 5.0700000000 -0.4959582939 0.7247546397 1 1 1.0
15 3 5.4600000000 -0.8667823735 0.6860199073 1 1 1.0
16 1 5.8500000000 -1.1504009817 0.4440046959 1 1 1.0
17 2 6.2400000000 -1.2469886957 0.0838912539 1 1 1.0
18 1 6.6300000000 -1.1225494759 -0.2675710600 1 1 1.0
19 3 7.0200000000 -0.8208822742 -0.4866778306 1 1 1.0
20 2 7.4100000000 -0.4481650884 -0.4963099077 1 1 1.0
21 3 7.8000000000 -0.1355834246 -0.2930770831 1 1 1.0
22 3 8.1900000000 0.0068431490 0.0514886562 1 1 1.0
23 1 8.5800000000 -0.0710153397 0.4161102864 1 1 1.0
24 4 8.9700000000 -0.3417549887 0.6724516994 1 1 1.0
25 3 9.3600000000 -0.7100833905 0.7302882441 1 1 1.0
26 4 9.7500000000 -1.0463597622 0.5692631548 1 1 1.0
27 3 10.1400000000 -1.2322246942 0.2460525353 1 1 1.0
28 3 10.5300000000 -1.2022591875 -0.1255829662 1 1 1.0
29 3 10.9200000000 -0.9670102207 -0.4148385645 1 1 1.0
30 2 11.3100000000 -0.6092785230 -0.5199047817 1 1 1.0
31 4 11.7000000000 -0.2549751488 -0.4038013943 1 1 1.0
32 2 12.0900000000 -0.0288044833 -0.1073933857 1 1 1.0
33 4 12.4800000000 -0.0103719601 0.2649923278 1 1 1.0
34 2 12.8700000000 -0.2061652863 0.5822869085 1 1 1.0
35 1 13.2600000000 -0.5472709596 0.7328119800 1 1 1.0
36 4 13.6500000000 -0.9136297982 0.6635871366 1 1 1.0
37 1 14.0400000000 -1.1762942473 0.3989774908 1 1 1.0
38 4 14.4300000000 -1.2428141329 0.0321178686 1 1 1.0
39 3 14.8200000000 -1.0897764084 -0.3078679140 1 1 1.0
40 4 15.2100000000 -0.7710458594 -0.5013148438 1 1 1.0
41 2 15.6000000000 -0.3988062810 -0.4801352813 1 1 1.0
42 2 15.9900000000 -0.1040750758 -0.2517838106 1 1 1.0
43 3 16.3800000000 0.0094110256 0.1033665552 1 1 1.0
44 1 16.7700000000 -0.0982917524 0.4603133147 1 1 1.0
45 3 17.1600000000 -0.3892751943 0.6934216888 1 1 1.0
46 4 17.5500000000 -0.7611216720 0.7206443740 1 1 1.0
47 4 17.9400000000 -1.0829521429 0.5323997844 1 1 1.0
48 3 18.3300000000 -1.2414917305 0.1949444885 1 1 1.0
49 2 18.7200000000 -1.1809391547 -0.1729471573 1 1 1.0
50 3 19.1100000000 -0.9226071444 -0.4417880954 1 1 1.0
51 4 19.5000000000 -0.5574209824 -0.5169542088 1 1 1.0
52 4 19.8900000000 -0.2139154756 -0.3719892325 1 1 1.0
53 1 20.2800000000 -0.0129944769 -0.0579165820 1 1 1.0
54 3 20.6700000000 -0.0253762786 0.3147193912 1 1 1.0
55 2 21.0600000000 -0.2467028501 0.6147617653 1 1 1.0
56 2 21.4500000000 -0.5990737365 0.7366044341 1 1 1.0
57 2 21.8400000000 -0.9584647316 0.6373623556 1 1 1.0
58 3 22.2300000000 -1.1983807572 0.3519658275 1 1 1.0
59 4 22.6200000000 -1.2343784162 -0.0191339517 1 1 1.0
60 2 23.0100000000 -1.0537875896 -0.3453207553 1 1 1.0
61 2 23.4000000000 -0.7201709462 -0.5117864057 1 1 1.0
62 3 23.7900000000 -0.3509517491 -0.4599398814 1 1 1.0
63 2 24.1800000000 -0.0760843154 -0.2080296367 1 1 1.0
64 4 24.5700000000 0.0076860887 0.1552793185 1 1 1.0
65 4 24.9600000000 -0.1291252595 0.5021128990 1 1 1.0
66 1 25.3500000000 -0.4383647824 0.7103958676 1 1 1.0
67 3 25.7400000000 -0.8111892473 0.7068187348 1 1 1.0
68 2 26.1300000000 -1.1163753890 0.4926405462 1 1 1.0
69 4 26.5200000000 -1.2465066461 0.1432457359 1 1 1.0
70 2 26.9100000000 -1.1557806367 -0.2183889814 1 1 1.0
71 3 27.3000000000 -0.8761302525 -0.4649788030 1 1 1.0
72 2 27.6900000000 -0.5059842179 -0.5097313518 1 1 1.0
73 1 28.0800000000 -0.1756230695 -0.3368950445 1 1 1.0
74 2 28.4700000000 -0.0013242317 -0.0073031868 1 1 1.0
75 3 28.8600000000 -0.0444357781 0.3630375646 1 1 1.0
76 2 29.2500000000 -0.2897837100 0.6437781384 1 1 1.0
77 1 29.6400000000 -0.6510127590 0.7361060956 1 1 1.0
78 3 30.0300000000 -1.0009809058 0.6075247059 1 1 1.0
79 4 30.4200000000 -1.2165096380 0.3032908433 1 1 1.0
80 1 30.8100000000 -1.2217391698 -0.0695141050 1 1 1.0
81 1 31.2000000000 -1.0148288598 -0.3796737431 1 1 1.0
82 2 31.5900000000 -0.6686050619 -0.5180209849 1 1 1.0
83 3 31.9800000000 -0.3049283876 -0.4358616631 1 1 1.0
84 4 32.3700000000 -0.0518023486 -0.1621134468 1 1 1.0
85 4 32.7600000000 0.0016801213 0.2068723292 1 1 1.0
86 1 33.1500000000 -0.1633052368 0.5412235056 1 1 1.0
87 1 33.5400000000 -0.4886884212 0.7232582849 1 1 1.0
88 3 33.9300000000 -0.8599441043 0.6889057695 1 1 1.0
89 4 34.3200000000 -1.1464011859 0.4502570362 1 1 1.0
90 4 34.7100000000 -1.2472351840 0.0913094323 1 1 1.0
91 4 35.1000000000 -1.1269554917 -0.2615980246 1 1 1.0
92 4 35.4900000000 -0.8278970293 -0.4842522713 1 1 1.0
93 2 35.8800000000 -0.4553195949 -0.4982855502 1 1 1.0
94 2 36.2700000000 -0.1403595064 -0.2987585591 1 1 1.0
95 1 36.6600000000 0.0061265326 0.0441010593 1 1 1.0
96 3 37.0500000000 -0.0674202629 0.4096167859 1 1 1.0
97 3 37.4400000000 -0.3351135800 0.6691378168 1 1 1.0
98 2 37.8300000000 -0.7027332310 0.7313203687 1 1 1.0
99 3 38.2200000000 -1.0408878921 0.5742780092 1 1 1.0
100 3 38.6100000000 -1.2305570511 0.2532850378 1 1 1.0
101 1 39.0000000000 -1.2049827329 -0.1186784439 1 1 1.0
102 4 39.3900000000 -0.9731663465 -0.4106922117 1 1 1.0
103 1 39.7800000000 -0.6167004537 -0.5199759928 1 1 1.0
104 4 40.1700000000 -0.2610505828 -0.4080651050 1 1 1.0
105 4 40.5600000000 -0.0313950460 -0.1143488951 1 1 1.0
106 1 40.9500000000 -0.0085658497 0.2577931548 1 1 1.0
107 2 41.3400000000 -0.2005982005 0.5773779695 1 1 1.0
108 1 41.7300000000 -0.5399023492 0.7319210773 1 1 1.0
109 3 42.1200000000 -0.9070531977 0.6670278419 1 1 1.0
110 4 42.5100000000 -1.1728244270 0.4055387768 1 1 1.0
111 4 42.9000000000 -1.2436723677 0.0394903553 1 1 1.0
112 1 43.2900000000 -1.0946606247 -0.3022791255 1 1 1.0
113 1 43.6800000000 -0.7782369566 -0.4994768429 1 1 1.0
114 1 44.0700000000 -0.4057732041 -0.4826949904 1 1 1.0
115 1 44.4600000000 -0.1083656722 -0.2578402872 1 1 1.0
116 3 44.8500000000 0.0093069197 0.0959450130 1 1 1.0
117 3 45.2400000000 -0.0941727256 0.4541388719 1 1 1.0
118 3 45.6300000000 -0.3823828112 0.6906675679 1 1 1.0
119 1 46.0200000000 -0.7538818491 0.7222799448 1 1 1.0
120 2 46.4100000000 -1.0779130854 0.5378493739 1 1 1.0
121 2 46.8000000000 -1.2404270386 0.2022900013 1 1 1.0
122 4 47.1900000000 -1.1842235687 -0.1662911261 1 1 1.0
123 1 47.5800000000 -0.9290846470 -0.4381642733 1 1 1.0
124 3 47.9700000000 -0.5648116829 -0.5176380748 1 1 1.0
125 4 48.3600000000 -0.2196180644 -0.3767400859 1 1 1.0
126 1 48.7500000000 -0.0150018101 -0.0650622618 1 1 1.0
127 2 49.1400000000 -0.0229818340 0.3076939544 1 1 1.0
128 1 49.5300000000 -0.2407494018 0.6103293191 1 1 1.0
129 1 49.9200000000 -0.5916567235 0.7363250693 1 1 1.0
130 3 50.3100000000 -0.9521947248 0.6413344004 1 1 1.0
131 2 50.7000000000 -1.1954646147 0.3587912388 1 1 1.0
132 2 51.0900000000 -1.2358425347 -0.0118575182 1 1 1.0
133 3 51.4800000000 -1.0591166424 -0.3401543907 1 1 1.0
134 2 51.8700000000 -0.7274892631 -0.5105485186 1 1 1.0
135 4 52.2600000000 -0.3576834975 -0.4630661717 1 1 1.0
136 2 52.6500000000 -0.0798601174 -0.2144197420 1 1 1.0
137 3 53.0400000000 0.0081952045 0.1478745276 1 1 1.0
138 3 53.4300000000 -0.1245104198 0.4962996915 1 1 1.0
139 3 53.8200000000 -0.4312685068 0.7082203219 1 1 1.0
140 4 54.2100000000 -0.8041092165 0.7090465791 1 1 1.0
141 3 54.6000000000 -1.1118035659 0.4984876447 1 1 1.0
142 1 54.9900000000 -1.2460521783 0.1506540816 1 1 1.0
143 4 55.3800000000 -1.1596034835 -0.2120269087 1 1 1.0
144 2 55.7700000000 -0.8828848840 -0.4619022661 1 1 1.0
145 4 56.1600000000 -0.5132932022 -0.5110232013 1 1 1.0
146 2 56.5500000000 -0.1809138587 -0.3421005874 1 1 1.0
147 1 56.9400000000 -0.0027346234 -0.0145902247 1 1 1.0
148 1 57.3300000000 -0.0414693557 0.3562338549 1 1 1.0
149 3 57.7200000000 -0.2834845672 0.6398524631 1 1 1.0
150 2 58.1100000000 -0.6435980091 0.7364401771 1 1 1.0
151 2 58.5000000000 -0.9950603231 0.6120009573 1 1 1.0
152 4 58.8900000000 -1.2141670937 0.3103337556 1 1 1.0
153 3 59.2800000000 -1.2237991708 -0.0623834302 1 1 1.0
154 3 59.6700000000 -1.0205663462 -0.3749650940 1 1 1.0
155 2 60.0600000000 -0.6760006069 -0.5173916676 1 1 1.0
156 3 60.4500000000 -0.3113789766 -0.4395331789 1 1 1.0
157 2 60.8400000000 -0.0550375636 -0.1687935299 1 1 1.0
158 3 61.2300000000 0.0027989810 0.1995348719 1 1 1.0
159 1 61.6200000000 -0.1582261082 0.5358112436 1 1 1.0
160 3 62.0100000000 -0.4814367278 0.7216761756 1 1 1.0
161 1 62.4000000000 -0.8530722292 0.6917106689 1 1 1.0
162 4 62.7900000000 -1.1423278275 0.4564617021 1 1 1.0
163 4 63.1800000000 -1.2473940448 0.0987300044 1 1 1.0
164 1 63.5700000000 -1.1312906574 -0.2555733698 1 1 1.0
165 3 63.9600000000 -0.8348826487 -0.4817440353 1 1 1.0
166 3 64.3500000000 -0.4624969352 -0.5001765585 1 1 1.0
167 1 64.7400000000 -0.1452023545 -0.3043832323 1 1 1.0
168 4 65.1300000000 0.0053227170 0.0367224410 1 1 1.0
169 3 65.5200000000 -0.0639021264 0.4030812796 1 1 1.0
170 1 65.9100000000 -0.3285117723 0.6657457287 1 1 1.0
171 2 66.3000000000 -0.6953713944 0.7322656143 1 1 1.0
172 4 66.6900000000 -1.0353571771 0.5792278897 1 1 1.0
173 2 67.0800000000 -1.2288041069 0.2604973407 1 1 1.0
174 3 67.4700000000 -1.2076245444 -0.1117422376 1 1 1.0
175 1 67.8600000000 -0.9792730736 -0.4064734428 1 1 1.0
176 2 68.2500000000 -0.6241227079 -0.5199595442 1 1 1.0
177 1 68.6400000000 -0.2671759483 -0.4122567662 1 1 1.0
178 1 69.0300000000 -0.0340675743 -0.1212733243 1 1 1.0
179 4 69.4200000000 -0.0068448891 0.2505731534 1 1 1.0
180 1 69.8100000000 -0.1950894787 0.5724036243 1 1 1.0
181 2 70.2000000000 -0.5325447745 0.7309432119 1 1 1.0
182 1 70.5900000000 -0.9004364204 0.6703906361 1 1 1.0
183 2 70.9800000000 -1.1692773584 0.4120586258 1 1 1.0
184 3 71.3700000000 -1.2444434719 0.0468724638 1 1 1.0
185 2 71.7600000000 -1.0994784956 -0.2966330430 1 1 1.0
186 2 72.1500000000 -0.7854058451 -0.4975540417 1 1 1.0
187 2 72.5400000000 -0.4127698719 -0.4851722400 1 1 1.0
188 3 72.9300000000 -0.1127274978 -0.2638456685 1 1 1.0
189 1 73.3200000000 0.0091151710 0.0885252179 1 1 1.0
190 3 73.7100000000 -0.0901269075 0.4479162130 1 1 1.0
191 2 74.1000000000 -0.3755234356 0.6878322385 1 1 1.0
192 2 74.4900000000 -0.7466232147 0.7238298975 1 1 1.0
193 2 74.8800000000 -1.0728100184 0.5432390710 1 1 1.0
194 1 75.2700000000 -1.2392756688 0.2096224276 1 1 1.0
195 2 75.6600000000 -1.1874291445 -0.1595967695 1 1 1.0
196 1 76.0500000000 -0.9355188997 -0.4344642032 1 1 1.0
197 4 76.4400000000 -0.5722099446 -0.5182346073 1 1 1.0
198 3 76.8300000000 -0.2253763641 -0.3814232591 1 1 1.0
199 3 77.2200000000 -0.0170933955 -0.0721837362 1 1 1.0
200 4 77.6100000000 -0.0206705283 0.3006407287 1 1 1.0
201 3 78.0000000000 -0.2348487168 0.6058268704 1 1 1.0
202 1 78.3900000000 -0.5842435271 0.7359581274 1 1 1.0
203 1 78.7800000000 -0.9458782444 0.6452321181 1 1 1.0
204 1 79.1700000000 -1.1924680661 0.3655817339 1 1 1.0
205 1 79.5600000000 -1.2372206149 -0.0045643007 1 1 1.0
206 2 79.9500000000 -1.0643843076 -0.3349254492 1 1 1.0
207 3 80.3400000000 -0.7347924498 -0.5092242869 1 1 1.0
208 3 80.7300000000 -0.3644516985 -0.4661127405 1 1 1.0
209 3 81.1200000000 -0.0837111246 -0.2207648086 1 1 1.0
210 4 81.5100000000 0.0086168325 0.1404642404 1 1 1.0
211 2 81.9000000000 -0.1199645571 0.4904323872 1 1 1.0
212 2 82.2900000000 -0.4241984197 0.7059611194 1 1 1.0
213 2 82.6800000000 -0.7970033681 0.7111906512 1 1 1.0
214 4 83.0700000000 -1.1071630062 0.5042803412 1 1 1.0
215 1 83.4600000000 -1.2455102479 0.1580565433 1 1 1.0
216 4 83.8500000000 -1.1633509262 -0.2056201310 1 1 1.0
217 1 84.2400000000 -0.8896027099 -0.4587461700 1 1 1.0
218 1 84.6300000000 -0.5206169338 -0.5122286400 1 1 1.0
219 2 85.0200000000 -0.1862657575 -0.3472432818 1 1 1.0
220 2 85.4100000000 -0.0042309782 -0.0218600974 1 1 1.0
221 2 85.8000000000 -0.0385834936 0.3493955856 1 1 1.0
222 1 86.1900000000 -0.2772322268 0.6358526673 1 1 1.0
223 1 86.5800000000 -0.6361798308 0.7366866654 1 1 1.0
224 3 86.9700000000 -0.9890872877 0.6164069731 1 1 1.0
225 1 87.3600000000 -1.2117415344 0.3173485107 1 1 1.0
226 1 87.7500000000 -1.2257748132 -0.0552289237 1 1 1.0
227 4 88.1400000000 -1.0262478222 -0.3701890122 1 1 1.0
228 3 88.5300000000 -0.6833882038 -0.5166750512 1 1 1.0
229 3 88.9200000000 -0.3178724772 -0.4431282558 1 1 1.0
230 3 89.3100000000 -0.0583514463 -0.1754349386 1 1 1.0
231 4 89.7000000000 0.0038311056 0.1921847124 1 1 1.0
232 2 90.0900000000 -0.1532112539 0.5303393735 1 1 1.0
233 4 90.4800000000 -0.4742042252 0.7200085325 1 1 1.0
234 4 90.8700000000 -0.8461677070 0.6944342143 1 1 1.0
235 3 91.2600000000 -1.1381814747 0.4626178279 1 1 1.0
236 4 91.6500000000 -1.2474652559 0.1061519351 1 1 1.0
237 1 92.0400000000 -1.1355543681 -0.2494979359 1 1 1.0
238 4 92.4300000000 -0.8418381582 -0.4791534726 1 1 1.0
239 3 92.8200000000 -0.4696961082 -0.5019826689 1 1 1.0
240 1 93.2100000000 -0.1501112936 -0.3099503181 1 1 1.0
241 4 93.6000000000 0.0044318143 0.0293538306 1 1 1.0
242 4 93.9900000000 -0.0604614212 0.3965046791 1 1 1.0
243 3 94.3800000000 -0.3219504863 0.6622759084 1 1 1.0
244 3 94.7700000000 -0.6879989077 0.7331238491 1 1 1.0
245 4 95.1600000000 -1.0297683885 0.5841121061 1 1 1.0
246 1 95.5500000000 -1.2269661060 0.2676884380 1 1 1.0
247 3 95.9400000000 -1.2101842534 -0.1047753146 1 1 1.0
248 1 96.3300000000 -0.9853295502 -0.4021828464 1 1 1.0
249 2 96.7200000000 -0.6315442501 -0.5198554384 1 1 1.0
250 4 97.1100000000 -0.2733503912 -0.4163757931 1 1 1.0
251 4 97.5000000000 -0.0368216951 -0.1281657074 1 1 1.0
252 3 97.8900000000 -0.0052093183 0.2433333305 1 1 1.0
253 2 98.2800000000 -0.1896398891 0.5673645667 1 1 1.0
254 3 98.6700000000 -0.5251992617 0.7298785200 1 1 1.0
255 1 99.0600000000 -0.8937803892 0.6736750501 1 1 1.0
256 2 99.4500000000 -1.1656535364 0.4185361284 1 1 1.0
257 3 99.8400000000 -1.2451273379 0.0542631643 1 1 1.0
258 2 100.2300000000 -1.1042293490 -0.2909304542 1 1 1.0
259 1 100.6200000000 -0.7925515249 -0.4955467085 1 1 1.0
260 1 101.0100000000 -0.4197953087 -0.4875666846 1 1 1.0
261 2 101.4000000000 -0.1171599440 -0.2697991168 1 1 1.0
262 4 101.7900000000 0.0088358063 0.0811082049 1 1 1.0
263 2 102.1800000000 -0.0861548626 0.4416462062 1 1 1.0
264 1 102.5700000000 -0.3686980242 0.6849160961 1 1 1.0
265 2 102.9600000000 -0.7393467813 0.7252940161 1 1 1.0
266 3 103.3500000000 -1.0676436538 0.5485681238 1 1 1.0
267 1 103.7400000000 -1.2380377817 0.2169407445 1 1 1.0
268 2 103.7400000000 -2.7980377817 0.2169407445 1 1 1.0
269 2 103.3500000000 -2.8455201286 -0.1528650211 1 1 1.0
270 3 102.9600000000 -3.0941665583 -0.4306884012 1 1 1.0
271 3 102.5700000000 -3.4564608279 -0.5187437231 1 1 1.0
272 1 102.1800000000 -3.8048859918 -0.3860380989 1 1 1.0
273 4 101.7900000000 -4.0168066222 -0.0792800119 1 1 1.0
274 4 101.4000000000 -4.0176328794 0.2935606979 1 1 1.0
275 2 101.0100000000 -3.8070739450 0.6012550473 1 1 1.0
276 2 100.6200000000 -3.4592403819 0.7355036596 1 1 1.0
277 4 100.2300000000 -3.0965593916 0.6490549649 1 1 1.0
278 2 99.8400000000 -2.8466840342 0.3723363654 1 1 1.0
279 3 99.4500000000 -2.7975630990 0.0027446836 1 1 1.0
280 3 99.0600000000 -2.9664857129 -0.3296346600 1 1 1.0
281 2 98.6700000000 -3.2939960756 -0.5078138953 1 1 1.0
282 2 98.2800000000 -3.6648201552 -0.4690791629 1 1 1.0
283 1 97.8900000000 -3.9484387634 -0.2270639514 1 1 1.0
284 2 97.5000000000 -4.0450264774 0.1330494905 1 1 1.0
285 2 97.1100000000 -3.9205872576 0.4845118044 1 1 1.0
286 1 96.7200000000 -3.6189200559 0.7036185751 1 1 1.0
287 4 96.3300000000 -3.2462028700 0.7132506522 1 1 1.0
288 3 95.9400000000 -2.9336212063 0.5100178275 1 1 1.0
289 2 95.5500000000 -2.7911946327 0.1654520883 1 1 1.0
290 3 95.1600000000 -2.8690531214 -0.1991695420 1 1 1.0
291 1 94.7700000000 -3.1397927703 -0.4555109550 1 1 1.0
292 4 94.3800000000 -3.5081211722 -0.5133474996 1 1 1.0
293 2 93.9900000000 -3.8443975439 -0.3523224104 1 1 1.0
294 2 93.6000000000 -4.0302624759 -0.0291117908 1 1 1.0
295 3 93.2100000000 -4.0002969692 0.3425237106 1 1 1.0
296 2 92.8200000000 -3.7650480024 0.6317793089 1 1 1.0
297 2 92.4300000000 -3.4073163047 0.7368455262 1 1 1.0
298 2 92.0400000000 -3.0530129305 0.6207421387 1 1 1.0
299 3 91.6500000000 -2.8268422650 0.3243341301 1 1 1.0
300 1 91.2600000000 -2.8084097418 -0.0480515834 1 1 1.0
301 3 90.8700000000 -3.0042030680 -0.3653461641 1 1 1.0
302 4 90.4800000000 -3.3453087413 -0.5158712356 1 1 1.0
303 3 90.0900000000 -3.7116675799 -0.4466463922 1 1 1.0
304 2 89.7000000000 -3.9743320290 -0.1820367463 1 1 1.0
305 4 89.3100000000 -4.0408519146 0.1848228758 1 1 1.0
306 1 88.9200000000 -3.8878141900 0.5248086584 1 1 1.0
307 3 88.5300000000 -3.5690836410 0.7182555883 1 1 1.0
308 4 88.1400000000 -3.1968440627 0.6970760257 1 1 1.0
309 3 87.7500000000 -2.9021128575 0.4687245550 1 1 1.0
310 4 87.3600000000 -2.7886267560 0.1135741892 1 1 1.0
311 2 86.9700000000 -2.8963295341 -0.2433725703 1 1 1.0
312 3 86.5800000000 -3.1873129760 -0.4764809444 1 1 1.0
313 3 86.1900000000 -3.5591594536 -0.5037036296 1 1 1.0
314 2 85.8000000000 -3.8809899246 -0.3154590399 1 1 1.0
315 4 85.4100000000 -4.0395295121 0.0219962559 1 1 1.0
316 4 85.0200000000 -3.9789769364 0.3898879018 1 1 1.0
317 4 84.6300000000 -3.7206449261 0.6587288398 1 1 1.0
318 4 84.2400000000 -3.3554587641 0.7338949532 1 1 1.0
319 1 83.8500000000 -3.0119532573 0.5889299770 1 1 1.0
320 3 83.4600000000 -2.8110322586 0.2748573265 1 1 1.0
321 3 83.0700000000 -2.8234140603 -0.0977786467 1 1 1.0
322 1 82.6800000000 -3.0447406318 -0.3978210208 1 1 1.0
323 2 82.2900000000 -3.3971115182 -0.5196636896 1 1 1.0
324 4 81.9000000000 -3.7565025133 -0.4204216111 1 1 1.0
325 2 81.5100000000 -3.9964185388 -0.1350250830 1 1 1.0
326 3 81.1200000000 -4.0324161978 0.2360746961 1 1 1.0
327 4 80.7300000000 -3.8518253713 0.5622614998 1 1 1.0
328 3 80.3400000000 -3.5182087278 0.7287271502 1 1 1.0
329 3 79.9500000000 -3.1489895308 0.6768806258 1 1 1.0
330 2 79.5600000000 -2.8741220971 0.4249703811 1 1 1.0
331 2 79.1700000000 -2.7903516929 0.0616614259 1 1 1.0
332 4 78.7800000000 -2.9271630412 -0.2851721545 1 1 1.0
333 1 78.3900000000 -3.2364025641 -0.4934551231 1 1 1.0
334 2 78.0000000000 -3.6092270290 -0.4898779903 1 1 1.0
335 1 77.6100000000 -3.9144131707 -0.2756998018 1 1 1.0
336 1 77.2200000000 -4.0445444277 0.0736950085 1 1 1.0
337 1 76.8300000000 -3.9538184184 0.4353297258 1 1 1.0
338 1 76.4400000000 -3.6741680342 0.6819195475 1 1 1.0
339 2 76.0500000000 -3.3040219996 0.7266720963 1 1 1.0
340 2 75.6600000000 -2.9736608511 0.5538357890 1 1 1.0
341 2 75.2700000000 -2.7993620134 0.2242439312 1 1 1.0
342 2 74.8800000000 -2.8424735598 -0.1460968201 1 1 1.0
343 1 74.4900000000 -3.0878214917 -0.4268373940 1 1 1.0
344 1 74.1000000000 -3.4490505407 -0.5191653512 1 1 1.0
345 4 73.7100000000 -3.7990186875 -0.3905839615 1 1 1.0
346 1 73.3200000000 -4.0145474196 -0.0863500989 1 1 1.0
347 4 72.9300000000 -4.0197769515 0.2864548495 1 1 1.0
348 1 72.5400000000 -3.8128666414 0.5966144876 1 1 1.0
349 3 72.1500000000 -3.4666428435 0.7349617293 1 1 1.0
350 4 71.7600000000 -3.1029661693 0.6528024075 1 1 1.0
351 4 71.3700000000 -2.8498401303 0.3790541913 1 1 1.0
352 4 70.9800000000 -2.7963576603 0.0100684152 1 1 1.0
353 3 70.5900000000 -2.9613430185 -0.3242827611 1 1 1.0
354 1 70.2000000000 -3.2867262029 -0.5063175404 1 1 1.0
355 1 69.8100000000 -3.6579818859 -0.4719650250 1 1 1.0
356 3 69.4200000000 -3.9444389676 -0.2333162918 1 1 1.0
357 4 69.0300000000 -4.0452729657 0.1256313121 1 1 1.0
358 1 68.6400000000 -3.9249932734 0.4785387691 1 1 1.0
359 2 68.2500000000 -3.6259348110 0.7011930158 1 1 1.0
360 1 67.8600000000 -3.2533573766 0.7152262946 1 1 1.0
361 2 67.4700000000 -2.9383972880 0.5156993036 1 1 1.0
362 1 67.0800000000 -2.7919112491 0.1728396852 1 1 1.0
363 4 66.6900000000 -2.8654580445 -0.1926760414 1 1 1.0
364 4 66.3000000000 -3.1331513617 -0.4521970723 1 1 1.0
365 3 65.9100000000 -3.5007710127 -0.5143796243 1 1 1.0
366 1 65.5200000000 -3.8389256738 -0.3573372647 1 1 1.0
367 3 65.1300000000 -4.0285948328 -0.0363442934 1 1 1.0
368 4 64.7400000000 -4.0030205146 0.3356191884 1 1 1.0
369 4 64.3500000000 -3.7712041282 0.6276329561 1 1 1.0
370 3 63.9600000000 -3.4147382354 0.7369167373 1 1 1.0
371 1 63.5700000000 -3.0590883644 0.6250058495 1 1 1.0
372 4 63.1800000000 -2.8294328277 0.3312896395 1 1 1.0
373 2 62.7900000000 -2.8066036314 -0.0408524104 1 1 1.0
374 4 62.4000000000 -2.9986359822 -0.3604372250 1 1 1.0
375 4 62.0100000000 -3.3379401309 -0.5149803329 1 1 1.0
376 2 61.6200000000 -3.7050909794 -0.4500870975 1 1 1.0
377 1 61.2300000000 -3.9708622087 -0.1885980323 1 1 1.0
378 1 60.8400000000 -4.0417101494 0.1774503891 1 1 1.0
379 4 60.4500000000 -3.8926984064 0.5192198699 1 1 1.0
380 3 60.0600000000 -3.5762747383 0.7164175874 1 1 1.0
381 4 59.6700000000 -3.2038109857 0.6996357348 1 1 1.0
382 3 59.2800000000 -2.9064034539 0.4747810316 1 1 1.0
383 1 58.8900000000 -2.7887308619 0.1209957315 1 1 1.0
384 3 58.5000000000 -2.8922105072 -0.2371981274 1 1 1.0
385 4 58.1100000000 -3.1804205929 -0.4737268235 1 1 1.0
386 3 57.7200000000 -3.5519196308 -0.5053392003 1 1 1.0
387 4 57.3300000000 -3.8759508670 -0.3209086295 1 1 1.0
388 4 56.9400000000 -4.0384648202 0.0146507431 1 1 1.0
389 2 56.5500000000 -3.9822613504 0.3832318706 1 1 1.0
390 2 56.1600000000 -3.7271224287 0.6551050178 1 1 1.0
391 3 55.7700000000 -3.3628494646 0.7345788193 1 1 1.0
392 3 55.3800000000 -3.0176558461 0.5936808304 1 1 1.0
393 3 54.9900000000 -2.8130395918 0.2820030063 1 1 1.0
394 4 54.6000000000 -2.8210196156 -0.0907532100 1 1 1.0
395 2 54.2100000000 -3.0387871835 -0.3933885746 1 1 1.0
396 2 53.8200000000 -3.3896945052 -0.5193843249 1 1 1.0
397 3 53.4300000000 -3.7502325064 -0.4243936560 1 1 1.0
398 1 53.0400000000 -3.9935023964 -0.1418504944 1 1 1.0
399 1 52.6500000000 -4.0338803164 0.2287982627 1 1 1.0
400 4 52.2600000000 -3.8571544241 0.5570951352 1 1 1.0
401 3 51.8700000000 -3.5255270447 0.7274892631 1 1 1.0
402 3 51.4800000000 -3.1557212792 0.6800069162 1 1 1.0
403 4 51.0900000000 -2.8778978991 0.4313604865 1 1 1.0
404 3 50.7000000000 -2.7898425772 0.0690662168 1 1 1.0
405 1 50.3100000000 -2.9225482014 -0.2793589471 1 1 1.0
406 1 49.9200000000 -3.2293062884 -0.4912795775 1 1 1.0
407 3 49.5300000000 -3.6021469982 -0.4921058346 1 1 1.0
408 2 49.1400000000 -3.9098413476 -0.2815469003 1 1 1.0
409 3 48.7500000000 -4.0440899599 0.0662866628 1 1 1.0
410 4 48.3600000000 -3.9576412652 0.4289676531 1 1 1.0
411 3 47.9700000000 -3.6809226657 0.6788430105 1 1 1.0
412 2 47.5800000000 -3.3113309839 0.7279639457 1 1 1.0
413 4 47.1900000000 -2.9789516403 0.5590413318 1 1 1.0
414 3 46.8000000000 -2.8007724050 0.2315309692 1 1 1.0
415 1 46.4100000000 -2.8395071374 -0.1392931104 1 1 1.0
416 4 46.0200000000 -3.0815223489 -0.4229117187 1 1 1.0
417 3 45.6300000000 -3.4416357908 -0.5194994326 1 1 1.0
418 3 45.2400000000 -3.7930981047 -0.3950602129 1 1 1.0
419 4 44.8500000000 -4.0122048753 -0.0933930111 1 1 1.0
420 3 44.4600000000 -4.0218369525 0.2793241747 1 1 1.0
421 1 44.0700000000 -3.8186041278 0.5919058384 1 1 1.0
422 2 43.6800000000 -3.4740383886 0.7343324121 1 1 1.0
423 4 43.2900000000 -3.1094167583 0.6564739234 1 1 1.0
424 4 42.9000000000 -2.8530753453 0.3857342744 1 1 1.0
425 1 42.5100000000 -2.7952388007 0.0174058725 1 1 1.0
426 1 42.1200000000 -2.9562638899 -0.3188704992 1 1 1.0
427 4 41.7300000000 -3.2794745095 -0.5047354311 1 1 1.0
428 3 41.3400000000 -3.6511100109 -0.4747699244 1 1 1.0
429 1 40.9500000000 -3.9403656092 -0.2395209576 1 1 1.0
430 2 40.5600000000 -4.0454318265 0.1182107401 1 1 1.0
431 4 40.1700000000 -3.9293284390 0.4725141142 1 1 1.0
432 3 39.7800000000 -3.6329204304 0.6986847798 1 1 1.0
433 3 39.3900000000 -3.2605347169 0.7171173030 1 1 1.0
434 4 39.0000000000 -2.9432401362 0.5213239768 1 1 1.0
435 1 38.6100000000 -2.7927150647 0.1802183034 1 1 1.0
436 3 38.2200000000 -2.8619399081 -0.1861405351 1 1 1.0
437 4 37.8300000000 -3.1265495540 -0.4488049843 1 1 1.0
438 3 37.4400000000 -3.4934091761 -0.5153248699 1 1 1.0
439 3 37.0500000000 -3.8333949587 -0.3622871453 1 1 1.0
440 4 36.6600000000 -4.0268418886 -0.0435565963 1 1 1.0
441 2 36.2700000000 -4.0056623260 0.3286829820 1 1 1.0
442 1 35.8800000000 -3.7773108553 0.6234141873 1 1 1.0
443 2 35.4900000000 -3.4221604895 0.7369002887 1 1 1.0
444 4 35.1000000000 -3.0652137300 0.6291975106 1 1 1.0
445 1 34.7100000000 -2.8321053559 0.3382140687 1 1 1.0
446 2 34.3200000000 -2.8048826707 -0.0336324089 1 1 1.0
447 3 33.9300000000 -2.9931272603 -0.3554628798 1 1 1.0
448 4 33.5400000000 -3.3305825562 -0.5140024674 1 1 1.0
449 3 33.1500000000 -3.6984742021 -0.4534498916 1 1 1.0
450 2 32.7600000000 -3.9673151401 -0.1951178813 1 1 1.0
451 3 32.3700000000 -4.0424812535 0.1700682807 1 1 1.0
452 4 31.9800000000 -3.8975162773 0.5135737875 1 1 1.0
453 2 31.5900000000 -3.5834436268 0.7144947862 1 1 1.0
454 4 31.2000000000 -3.2108076536 0.7021129845 1 1 1.0
455 1 30.8100000000 -2.9107652795 0.4807864129 1 1 1.0
456 4 30.4200000000 -2.7889226106 0.1284155265 1 1 1.0
457 3 30.0300000000 -2.8881646892 -0.2309754686 1 1 1.0
458 1 29.6400000000 -3.1735612173 -0.4708914941 1 1 1.0
459 4 29.2500000000 -3.5446609964 -0.5068891531 1 1 1.0
460 4 28.8600000000 -3.8708478001 -0.3262983265 1 1 1.0
461 3 28.4700000000 -4.0373134504 0.0073183169 1 1 1.0
462 4 28.0800000000 -3.9854669261 0.3765375139 1 1 1.0
463 1 27.6900000000 -3.7335566814 0.6514049477 1 1 1.0
464 3 27.3000000000 -3.3702477262 0.7351753518 1 1 1.0
465 1 26.9100000000 -3.0234141458 0.5983640036 1 1 1.0
466 1 26.5200000000 -2.8151311772 0.2891244807 1 1 1.0
467 4 26.1300000000 -2.8187083100 -0.0836999842 1 1 1.0
468 1 25.7400000000 -3.0328864985 -0.3888861259 1 1 1.0
469 2 25.3500000000 -3.3822813088 -0.5190173830 1 1 1.0
470 3 24.9600000000 -3.7439160261 -0.4282913736 1 1 1.0
471 3 24.5700000000 -3.9905058478 -0.1486409894 1 1 1.0
472 2 24.1800000000 -4.0352583965 0.2215050451 1 1 1.0
473 4 23.7900000000 -3.8624220893 0.5518661936 1 1 1.0
474 4 23.4000000000 -3.5328302315 0.7261650313 1 1 1.0
475 1 23.0100000000 -3.1624894802 0.6830534850 1 1 1.0
476 2 22.6200000000 -2.8817489063 0.4377055531 1 1 1.0
477 4 22.2300000000 -2.7894209491 0.0764765040 1 1 1.0
478 2 21.8400000000 -2.9180023388 -0.2734916427 1 1 1.0
479 1 21.4500000000 -3.2222362014 -0.4890203749 1 1 1.0
480 2 21.0600000000 -3.5950411498 -0.4942499068 1 1 1.0
481 4 20.6700000000 -3.9052007879 -0.2873395967 1 1 1.0
482 4 20.2800000000 -4.0435480296 0.0588842012 1 1 1.0
483 4 19.8900000000 -3.9613887078 0.4225608754 1 1 1.0
484 1 19.5000000000 -3.6876404916 0.6756869144 1 1 1.0
485 2 19.1100000000 -3.3186547155 0.7291693844 1 1 1.0
486 4 18.7200000000 -2.9843035392 0.5641840262 1 1 1.0
487 4 18.3300000000 -2.8022687599 0.2388008419 1 1 1.0
488 4 17.9400000000 -2.8366212752 -0.1324548412 1 1 1.0
489 2 17.5500000000 -3.0752700085 -0.4189119229 1 1 1.0
490 4 17.1600000000 -3.4342176124 -0.5197459209 1 1 1.0
491 2 16.7700000000 -3.7871250694 -0.3994662287 1 1 1.0
492 4 16.3800000000 -4.0097793160 -0.1004077662 1 1 1.0
493 1 15.9900000000 -4.0238125949 0.2721696682 1 1 1.0
494 3 15.6000000000 -3.8242856039 0.5871297567 1 1 1.0
495 4 15.2100000000 -3.4814259855 0.7336157956 1 1 1.0
496 2 14.8200000000 -3.1159102588 0.6600690002 1 1 1.0
497 1 14.4300000000 -2.8563892280 0.3923756830 1 1 1.0
498 1 14.0400000000 -2.7942066760 0.0247560321 1 1 1.0
499 1 13.6500000000 -2.9512490356 -0.3133986290 1 1 1.0
500 4 13.2600000000 -3.2722420069 -0.5030677881 1 1 1.0
501 3 12.8700000000 -3.6442054887 -0.4774934698 1 1 1.0
502 4 12.4800000000 -3.9362192564 -0.2456770834 1 1 1.0
503 3 12.0900000000 -4.0455030375 0.1107888093 1 1 1.0
504 1 11.7000000000 -3.9335921498 0.4664386803 1 1 1.0
505 1 11.3100000000 -3.6398759398 0.6960942170 1 1 1.0
506 1 10.9200000000 -3.2677338899 0.7189234134 1 1 1.0
507 2 10.5300000000 -2.9481490753 0.5268910626 1 1 1.0
508 2 10.1400000000 -2.7936059674 0.1875869138 1 1 1.0
509 4 9.7500000000 -2.8584992028 -0.1795639346 1 1 1.0
510 3 9.3600000000 -3.1199882680 -0.4453351639 1 1 1.0
511 1 8.9700000000 -3.4860366894 -0.5161831046 1 1 1.0
512 4 8.5800000000 -3.8278061702 -0.3671713617 1 1 1.0
513 4 8.1900000000 -4.0250038877 -0.0507476935 1 1 1.0
514 3 7.8000000000 -4.0082220351 0.3217160590 1 1 1.0
515 4 7.4100000000 -3.7833673319 0.6191235908 1 1 1.0
516 2 7.0200000000 -3.4295820317 0.7367961828 1 1 1.0
517 2 6.6300000000 -3.0713881729 0.6333165375 1 1 1.0
518 3 6.2400000000 -2.8348594768 0.3451064519 1 1 1.0
519 2 5.8500000000 -2.8032471000 -0.0263925860 1 1 1.0
520 3 5.4600000000 -2.9876776708 -0.3504238223 1 1 1.0
521 4 5.0700000000 -3.3232370434 -0.5129377755 1 1 1.0
522 1 4.6800000000 -3.6918181709 -0.4567343056 1 1 1.0
523 4 4.2900000000 -3.9636913181 -0.2015953840 1 1 1.0
524 1 3.9000000000 -4.0431651196 0.1626775802 1 1 1.0
525 1 3.5100000000 -3.9022671307 0.5078711987 1 1 1.0
526 4 3.1200000000 -3.5905893066 0.7124874529 1 1 1.0
527 3 2.7300000000 -3.2178330903 0.7045074291 1 1 1.0
528 3 2.3400000000 -2.9151977257 0.4867398613 1 1 1.0
529 2 1.9500000000 -2.7892019754 0.1358325396 1 1 1.0
530 2 1.5600000000 -2.8841926443 -0.2247054617 1 1 1.0
531 3 1.1700000000 -3.1667358059 -0.4679753517 1 1 1.0
532 2 0.7800000000 -3.5373845630 -0.5083532717 1 1 1.0
533 4 0.3900000000 -3.8656814355 -0.3316273793 1 1 1.0
534 3 -0.0000000000 -4.0360755634 0.0000000000 1 1 1.0
535 1 -0.0000000000 -5.5960755634 0.0000000000 1 1 1.0
536 1 0.3900000000 -5.6435579103 0.3698057656 1 1 1.0
537 4 0.7800000000 -5.8922043400 0.6476291457 1 1 1.0
538 1 1.1700000000 -6.2544986096 0.7356844676 1 1 1.0
539 2 1.5600000000 -6.6029237735 0.6029788433 1 1 1.0
540 4 1.9500000000 -6.8148444039 0.2962207563 1 1 1.0